   * xtb version 6.4.1 (bd6e46d) compiled by 'conda@4901f00b25ba' on 2021-06-10
          program call               : /jet/home/maihfly/.conda/envs/Cyclodextrins-Env/bin/xtb bBiCyDNH2_opt_xtb.xyz --chrg 1 --uhf 0 --opt
          number of atoms            :                   159
          number of electrons        :                   482
          charge                     :                     1
          spin                       :                   0.0

   ID    Z sym.   atoms
    1    1 H      1, 13-22, 33-40, 51-57, 69-78, 90-99, 109-113, 125-134,
                  140, 141, 145-147, 149, 150, 152, 155-159
    2    6 C      2-7, 23-28, 41-46, 58-63, 79-84, 100-104, 114-119, 135,
                  136, 139, 142-144, 153, 154
    3    8 O      8-12, 29-32, 47-50, 64-68, 85-89, 105-108, 120-124, 148
    4    7 N      137, 138, 151

          :  Hamiltonian                  GFN2-xTB          :
 * total energy  :  -285.3718438 Eh     change       -0.4691344E-08 Eh
 * total energy  :  -285.4103317 Eh     change       -0.3848792E-01 Eh
 * total energy  :  -285.4271479 Eh     change       -0.1681613E-01 Eh
 * total energy  :  -285.4319164 Eh     change       -0.4768509E-02 Eh
 * total energy  :  -285.4349900 Eh     change       -0.3073593E-02 Eh
 * total energy  :  -285.4370404 Eh     change       -0.2050416E-02 Eh
 * total energy  :  -285.4387165 Eh     change       -0.1676092E-02 Eh
 * total energy  :  -285.4401060 Eh     change       -0.1389515E-02 Eh
 * total energy  :  -285.4412696 Eh     change       -0.1163647E-02 Eh
 * total energy  :  -285.4422553 Eh     change       -0.9856471E-03 Eh
 * total energy  :  -285.4597176 Eh     change       -0.1805014E-04 Eh
 * total energy  :  -285.4597383 Eh     change       -0.2073609E-04 Eh
 * total energy  :  -285.4597464 Eh     change       -0.8070070E-05 Eh
 * total energy  :  -285.4597609 Eh     change       -0.1454340E-04 Eh
 * total energy  :  -285.4597671 Eh     change       -0.6160312E-05 Eh
 * total energy  :  -285.4597735 Eh     change       -0.6381881E-05 Eh
 * total energy  :  -285.4597779 Eh     change       -0.4392660E-05 Eh
 * total energy  :  -285.4597860 Eh     change       -0.8150402E-05 Eh
 * total energy  :  -285.4597885 Eh     change       -0.2467521E-05 Eh
   *** GEOMETRY OPTIMIZATION CONVERGED AFTER 72 ITERATIONS ***

 final structure:
================
159
 xtb: 6.4.1 (bd6e46d)
H       -31.66267239161996  -29.39390954311389  -13.70040159565412
C       -21.74935609116043  -27.11830428686818   -9.73431511874510
C       -21.94393547445971  -28.07953152109984   -8.54769320269900
C       -23.42077740821545  -28.46637318601936   -8.50446997549744
C       -24.28700006681047  -27.20037406204258   -8.41603064826512
C       -23.91094725185676  -26.18907570683481   -9.51525433225952
C       -24.59693356960239  -24.83318201300782   -9.31921790882088
O       -21.12400940775833  -29.20368719516669   -8.73907762068927
O       -23.63384331027153  -29.31720413137879   -7.40950801130463
O       -25.61790356594037  -27.63964508825020   -8.61291279544275
O       -22.50695868649169  -25.95735692205907   -9.55233411005112
O       -25.18045463580739  -24.43054900281291  -10.54247210702640
H       -20.70387886390109  -26.78787037010592   -9.78056142921466
H       -21.67393706623773  -27.55948920403691   -7.61755741139561
H       -23.67314362150571  -28.97848665050579   -9.44604301549947
H       -24.16153066998386  -26.74599836890574   -7.42459872562126
H       -24.23708718166891  -26.60529529951911  -10.47826377571342
H       -25.36994301563946  -24.91405775137203   -8.54488919500332
H       -23.83315878194668  -24.11821130338020   -8.99290501177105
H       -21.41288695032174  -29.87158397181748   -8.10139492167401
H       -24.58798393736160  -29.47860419116011   -7.32070413037504
H       -25.50527522754897  -23.52946413434377  -10.43881761144014
C       -21.03848259677725  -28.68067875299982  -14.75790394003239
C       -20.33570831200854  -29.50121000287664  -13.66505772937084
C       -21.10846902732134  -29.35160265560252  -12.35497386417922
C       -21.22943889638688  -27.86407679463381  -11.99428215334822
C       -21.78665140431312  -27.06405850198589  -13.18734370548031
C       -21.67484316679938  -25.56037245004066  -12.94043158108882
O       -20.25521563485594  -30.84980231579915  -14.04719344158366
O       -22.12659576610026  -27.79025811029771  -10.90331479528043
O       -21.08036445866928  -27.33593870734337  -14.38974443786190
O       -22.39410150983975  -24.87837646879036  -13.94424630804302
H       -20.44610719524836  -28.70812081836334  -15.68011293406009
H       -19.32537037624185  -29.08608905949725  -13.52846266167791
H       -20.23876912450365  -27.48120668909866  -11.71567232321985
H       -22.84406155397848  -27.33765633703872  -13.30744242353720
H       -22.08614220988508  -25.33096155372349  -11.94902934769313
H       -20.61357577101558  -25.28950909179582  -12.97287566722916
H       -20.02529839983680  -31.34766009488137  -13.24943411170518
H       -22.14498654977094  -23.94878718114476  -13.92461697487240
C       -24.30224184456063  -30.93289327007178  -18.23006733463387
C       -22.79901324055901  -31.22578310941736  -18.11241199679895
C       -22.30144893794593  -30.92290353765217  -16.69515463349783
C       -22.68195344351118  -29.47353393550805  -16.32494925835121
C       -24.20751153831268  -29.31294227634441  -16.46852821465396
C       -24.62758254315960  -27.85685715646274  -16.24689030807740
O       -22.60102013760884  -32.58131476625935  -18.42180364521081
O       -20.91985538894613  -31.14724133863639  -16.71412775802168
O       -22.33836917282742  -29.18504688279113  -14.98385539020556
O       -24.62470416716528  -29.64345312804344  -17.79068900011170
H       -24.59770966289285  -30.95179295078175  -19.28302504736938
H       -22.25025740622447  -30.58291956495923  -18.81640277487748
H       -22.80008278454862  -31.59958565689260  -15.98493295906114
H       -22.17462392067026  -28.78141551157146  -17.01118040736404
H       -24.68335736354805  -29.97946838804152  -15.73722521896893
H       -21.66999890633424  -32.77303739805124  -18.23817992931429
H       -20.57992631727721  -31.13250810434893  -15.80172714149597
C       -28.08456179936154  -34.41808790794084  -17.69769781070844
C       -26.74856023937014  -35.13244965878842  -17.45241495759827
C       -25.68351902763495  -34.07247912920994  -17.14358041459955
C       -25.67622400770334  -32.92735085858730  -18.16847895032079
C       -27.08817149301994  -32.48048454967198  -18.58635897069263
C       -27.14485854379212  -31.60902143893110  -19.85963186184593
O       -26.91747228438110  -36.01437753270874  -16.37741820812777
O       -24.42936068467765  -34.70145253428838  -17.09049803785460
O       -25.02983064528837  -31.86427115669782  -17.47588595486285
O       -27.97138095540570  -33.57188189861348  -18.80988440668292
O       -27.28160013064223  -30.24363713606066  -19.56146630580893
H       -28.86863141728861  -35.14317265520562  -17.95206852849884
H       -26.46677757812081  -35.67176266953484  -18.36842874366583
H       -25.92772600010840  -33.63088283626205  -16.16381992401209
H       -25.09060259011417  -33.23822589564697  -19.04178379591121
H       -27.46536353944104  -31.88568379620003  -17.74081439834417
H       -26.23376656956407  -31.71912576796613  -20.45042273788511
H       -27.97948301164209  -31.97260975887091  -20.46892619688277
H       -26.04225207405216  -36.35330277130482  -16.14694562701897
H       -23.74892141109913  -34.05435535747104  -17.33046810153233
H       -28.20032155427420  -30.08059761392664  -19.30340470816801
C       -31.29801586224975  -31.73170210273005  -14.44358219760520
C       -31.08850130368644  -33.20530408214034  -14.06050884092214
C       -29.76908278741231  -33.69159858227689  -14.65811868249032
C       -29.73166181566630  -33.44687148310185  -16.17820808323975
C       -30.08990622075194  -31.97420926954083  -16.45534340531997
C       -30.24493982252360  -31.60150230726161  -17.93271273342970
O       -31.09072513239370  -33.32079267231641  -12.66321006579219
O       -29.62000517592380  -35.05051478803100  -14.35371746165208
O       -28.38613289510721  -33.71750420508796  -16.52960525227509
O       -31.31244022465274  -31.59603804203810  -15.83692342443994
O       -29.87134432141690  -30.24451599212382  -18.13774813989001
H       -32.28867065431322  -31.40501799383568  -14.10761636744036
H       -31.91358130622359  -33.78923956031012  -14.49621672395951
H       -28.95027813685399  -33.10404325991404  -14.21217233780839
H       -30.42437226496770  -34.12509185133788  -16.69129130780049
H       -29.26788567795517  -31.38561153673702  -16.01744810802065
H       -29.60066678615285  -32.21696063690333  -18.55761525003092
H       -31.28360823668144  -31.76845507308847  -18.22597601505914
H       -30.75979177414980  -34.20451023548809  -12.45053478144055
H       -28.84133903810418  -35.38583182029831  -14.82230443310765
H       -30.62725156393526  -29.69081381282246  -17.91302571051284
C       -30.27846419505162  -27.56840551719697  -11.39888754072712
C       -31.31651747443654  -28.66383781947269  -11.08072043237313
C       -30.91388846447423  -29.98068417660646  -11.75395368318235
C       -30.71368185427272  -29.73454605353758  -13.26312291246073
C       -29.66527230201294  -28.61787999741807  -13.43796881863560
O       -31.45840022021336  -28.85096536136516   -9.69410326865676
O       -31.94558992799362  -30.89393551348750  -11.48650650167289
O       -30.28339022676365  -30.92640638153538  -13.89641148976288
O       -30.14738667125263  -27.45098517202253  -12.78774301463078
H       -30.64557067668546  -26.59147391205541  -11.05742949916037
H       -32.27441032243799  -28.33535819973604  -11.51252513799517
H       -29.96232154103783  -30.33203947460632  -11.32964823813035
H       -32.07461971773017  -29.59128664014911   -9.58739580287366
H       -31.66971911289029  -31.78338411480273  -11.76569683953871
C       -26.59120572454033  -27.36080340680157   -7.65571741908098
C       -27.48857707442829  -28.60163582874462   -7.56502895091532
C       -28.07549073133265  -28.84592858909092   -8.96273064624664
C       -28.78735710578041  -27.59228537080262   -9.49011424642809
C       -27.93495610670196  -26.31779664879042   -9.29388235261351
C       -28.74705037333530  -25.02347343774840   -9.43566341189302
O       -26.69995964541647  -29.68839653767905   -7.15429510075008
O       -28.91509070577438  -29.97283726660214   -8.95546816295445
O       -29.00160025643720  -27.83011707954689  -10.87855989689850
O       -27.35730824738171  -26.23993285963421   -7.99858262466136
O       -29.24856370088531  -24.81762429714125  -10.72547396785521
H       -26.15132748524684  -27.13092786620276   -6.67640498976736
H       -28.29686085212992  -28.41087204775759   -6.84295293867886
H       -27.23805378701905  -29.07291925720355   -9.63511648254798
H       -29.74279586512832  -27.47170841307807   -8.96764304597950
H       -27.13670597654675  -26.33747922420726  -10.05326296381849
H       -29.60634113777554  -25.04922141905949   -8.76191522507248
H       -28.09684997131893  -24.19332978287798   -9.12736670495249
H       -27.18419613356196  -30.49318708163218   -7.38732482642153
H       -29.84004397554603  -29.67582042758973   -8.94118644340913
H       -28.52783571552773  -24.94050706635307  -11.35598414871032
C       -27.58044092206931  -26.59101670373892  -14.54965871686947
C       -26.21294097113257  -26.55155016484247  -14.85088083968617
N       -28.09631509000588  -27.73448924765150  -15.16011766589636
N       -25.93906113682892  -27.65155354532183  -15.66253301288797
C       -27.09784265811640  -28.31026262087731  -15.87534837018855
H       -24.57622297792906  -27.35252596272013  -17.21869378105701
H       -23.90958671504509  -27.39271163781919  -15.56838686868868
C       -28.19203743730911  -25.56276962094075  -13.85392329788124
C       -25.40385350190077  -25.51960047298503  -14.40825138232987
C       -29.42685409121920  -28.25266376373686  -14.91858146095603
H       -28.72429249117246  -28.94274489600925  -12.97662801222129
H       -30.16233177269204  -27.49131102032584  -15.19329261685748
H       -29.57796417192436  -29.14777859679093  -15.52012634918230
O       -20.42413579451919  -30.08598554771633  -11.37766070404425
H       -22.12660428146529  -29.74918651618175  -12.49694531833397
H       -20.71860663129456  -29.80336057995340  -10.49197159482135
N       -27.23561824230006  -29.36029074477183  -16.68261401434470
H       -28.15857143412818  -29.63578484378959  -16.99638528107662
C       -26.01557965585027  -24.50699677328384  -13.69112964088710
C       -27.38326421391004  -24.51686711894199  -13.43975241490493
H       -25.41481081619302  -23.68695844622247  -13.33591097239404
H       -24.34624506432987  -25.47580642864408  -14.60748245727773
H       -27.83127187251266  -23.67659005725911  -12.93218891758096
H       -29.24716312135239  -25.57514401819099  -13.64379769959950
H       -26.47490919186153  -29.57498973191223  -17.33029084486517

          :  Hamiltonian                  GFN2-xTB          :
         :: total energy            -285.459788481171 Eh    ::
         :: gradient norm              0.000427660976 Eh/a0 ::
         :: HOMO-LUMO gap              3.298784884448 eV    ::
         :: SCC energy              -287.780952158369 Eh    ::
         :: -> dispersion             -0.210590508807 Eh    ::
         :: repulsion energy           2.309333619164 Eh    ::

    * Orbital Energies and Occupations

         #    Occupation            Energy/Eh            Energy/eV
      -------------------------------------------------------------
         1        2.0000           -0.8414969             -22.8983
       ...           ...                  ...                  ...
       229        2.0000           -0.4939748             -13.4417
       230        2.0000           -0.4932654             -13.4224
       231        2.0000           -0.4912413             -13.3674
       232        2.0000           -0.4896351             -13.3236
       233        2.0000           -0.4890531             -13.3078
       234        2.0000           -0.4888802             -13.3031
       235        2.0000           -0.4882912             -13.2871
       236        2.0000           -0.4859686             -13.2239
       237        2.0000           -0.4822778             -13.1234
       238        2.0000           -0.4810439             -13.0899
       239        2.0000           -0.4792347             -13.0406
       240        2.0000           -0.4753607             -12.9352
       241        2.0000           -0.4726814             -12.8623 (HOMO)
       242                         -0.3514533              -9.5635 (LUMO)
       243                         -0.3209210              -8.7327
       244                         -0.3090209              -8.4089
       245                         -0.1951766              -5.3110
       246                         -0.1703553              -4.6356
       247                         -0.1371477              -3.7320
       248                         -0.1360333              -3.7017
       249                         -0.1300862              -3.5398
       250                         -0.1225579              -3.3350
       251                         -0.1218884              -3.3168
       252                         -0.1196169              -3.2549
       ...                                ...                  ...
       414                          0.5874552              15.9855
      -------------------------------------------------------------
                  HL-Gap            0.1212281 Eh            3.2988 eV

     #   Z          covCN         q      C6AA      α(0)
     1   1 H        0.923     0.044     2.403     2.424
     2   6 C        3.642     0.237    17.233     5.968
     3   6 C        3.728     0.093    19.141     6.246
     4   6 C        3.732     0.098    19.045     6.229
     5   6 C        3.737     0.088    19.202     6.253
     6   6 C        3.750     0.097    19.045     6.224
     7   6 C        3.674     0.071    19.623     6.348
     8   8 O        1.656    -0.442    21.683     6.286
     9   8 O        1.656    -0.450    21.849     6.310
    10   8 O        1.704    -0.328    19.494     5.961
    11   8 O        1.701    -0.327    19.464     5.956
    12   8 O        1.655    -0.444    21.731     6.293
    13   1 H        0.924     0.054     2.265     2.354
    14   1 H        0.923     0.046     2.368     2.407
    15   1 H        0.923     0.048     2.340     2.392
    16   1 H        0.924     0.042     2.426     2.436
    17   1 H        0.923     0.069     2.092     2.262
    18   1 H        0.924     0.047     2.352     2.398
    19   1 H        0.924     0.055     2.260     2.351
    20   1 H        0.805     0.334     0.627     1.243
    21   1 H        0.804     0.328     0.642     1.259
    22   1 H        0.805     0.301     0.718     1.331
    23   6 C        3.642     0.231    17.309     5.982
    24   6 C        3.728     0.093    19.139     6.246
    25   6 C        3.731     0.101    19.010     6.224
    26   6 C        3.737     0.087    19.220     6.256
    27   6 C        3.747     0.099    19.014     6.220
    28   6 C        3.676     0.072    19.591     6.342
    29   8 O        1.656    -0.447    21.776     6.299
    30   8 O        1.703    -0.332    19.554     5.970
    31   8 O        1.702    -0.315    19.256     5.925
    32   8 O        1.656    -0.435    21.537     6.265
    33   1 H        0.924     0.065     2.141     2.288
    34   1 H        0.923     0.046     2.375     2.410
    35   1 H        0.923     0.041     2.430     2.438
    36   1 H        0.923     0.053     2.284     2.363
    37   1 H        0.924     0.055     2.261     2.351
    38   1 H        0.924     0.045     2.382     2.414
    39   1 H        0.805     0.339     0.616     1.232
    40   1 H        0.805     0.305     0.707     1.320
    41   6 C        3.633     0.230    17.364     5.998
    42   6 C        3.728     0.092    19.158     6.249
    43   6 C        3.729     0.096    19.091     6.238
    44   6 C        3.742     0.089    19.172     6.247
    45   6 C        3.743     0.094    19.088     6.233
    46   6 C        3.741    -0.029    21.167     6.564
    47   8 O        1.656    -0.445    21.740     6.294
    48   8 O        1.656    -0.461    22.072     6.342
    49   8 O        1.701    -0.332    19.563     5.972
    50   8 O        1.701    -0.319    19.328     5.936
    51   1 H        0.924     0.067     2.122     2.278
    52   1 H        0.923     0.043     2.404     2.425
    53   1 H        0.923     0.044     2.390     2.418
    54   1 H        0.923     0.048     2.346     2.395
    55   1 H        0.923     0.066     2.127     2.281
    56   1 H        0.805     0.332     0.631     1.248
    57   1 H        0.804     0.338     0.618     1.235
    58   6 C        3.644     0.238    17.204     5.962
    59   6 C        3.727     0.096    19.091     6.238
    60   6 C        3.730     0.100    19.021     6.226
    61   6 C        3.735     0.085    19.257     6.263
    62   6 C        3.751     0.082    19.277     6.261
    63   6 C        3.674     0.064    19.734     6.366
    64   8 O        1.657    -0.439    21.618     6.277
    65   8 O        1.656    -0.448    21.805     6.304
    66   8 O        1.702    -0.334    19.605     5.978
    67   8 O        1.701    -0.340    19.705     5.993
    68   8 O        1.655    -0.449    21.822     6.306
    69   1 H        0.924     0.055     2.257     2.349
    70   1 H        0.923     0.048     2.341     2.393
    71   1 H        0.923     0.056     2.246     2.343
    72   1 H        0.924     0.055     2.255     2.348
    73   1 H        0.923     0.054     2.268     2.355
    74   1 H        0.924     0.060     2.202     2.321
    75   1 H        0.924     0.059     2.209     2.324
    76   1 H        0.805     0.329     0.639     1.256
    77   1 H        0.804     0.325     0.652     1.268
    78   1 H        0.805     0.318     0.670     1.286
    79   6 C        3.650     0.235    17.232     5.963
    80   6 C        3.727     0.094    19.118     6.243
    81   6 C        3.733     0.101    19.005     6.222
    82   6 C        3.733     0.086    19.235     6.260
    83   6 C        3.752     0.091    19.137     6.238
    84   6 C        3.674     0.053    19.908     6.394
    85   8 O        1.656    -0.442    21.690     6.287
    86   8 O        1.656    -0.442    21.677     6.285
    87   8 O        1.704    -0.328    19.492     5.961
    88   8 O        1.702    -0.336    19.630     5.982
    89   8 O        1.654    -0.457    21.978     6.329
    90   1 H        0.924     0.065     2.147     2.291
    91   1 H        0.923     0.048     2.344     2.394
    92   1 H        0.923     0.050     2.323     2.383
    93   1 H        0.924     0.047     2.362     2.403
    94   1 H        0.923     0.046     2.377     2.411
    95   1 H        0.925     0.088     1.897     2.154
    96   1 H        0.924     0.062     2.174     2.306
    97   1 H        0.805     0.337     0.620     1.236
    98   1 H        0.804     0.328     0.643     1.260
    99   1 H        0.805     0.310     0.692     1.306
   100   6 C        3.637     0.226    17.395     6.000
   101   6 C        3.727     0.090    19.190     6.254
   102   6 C        3.729     0.093    19.133     6.244
   103   6 C        3.744     0.090    19.165     6.245
   104   6 C        3.748     0.098    19.024     6.221
   105   8 O        1.655    -0.446    21.771     6.299
   106   8 O        1.656    -0.461    22.069     6.342
   107   8 O        1.701    -0.333    19.580     5.974
   108   8 O        1.702    -0.312    19.197     5.915
   109   1 H        0.923     0.080     1.976     2.198
   110   1 H        0.923     0.042     2.429     2.437
   111   1 H        0.923     0.056     2.251     2.346
   112   1 H        0.804     0.333     0.631     1.248
   113   1 H        0.804     0.334     0.628     1.245
   114   6 C        3.644     0.241    17.169     5.956
   115   6 C        3.727     0.089    19.208     6.257
   116   6 C        3.731     0.095    19.094     6.237
   117   6 C        3.736     0.086    19.239     6.259
   118   6 C        3.748     0.086    19.208     6.251
   119   6 C        3.676     0.070    19.632     6.348
   120   8 O        1.656    -0.445    21.733     6.293
   121   8 O        1.655    -0.458    22.013     6.334
   122   8 O        1.701    -0.332    19.561     5.971
   123   8 O        1.702    -0.335    19.622     5.981
   124   8 O        1.656    -0.440    21.639     6.280
   125   1 H        0.924     0.053     2.278     2.360
   126   1 H        0.923     0.038     2.476     2.461
   127   1 H        0.924     0.068     2.108     2.271
   128   1 H        0.924     0.056     2.242     2.342
   129   1 H        0.923     0.055     2.256     2.349
   130   1 H        0.924     0.068     2.111     2.272
   131   1 H        0.923     0.047     2.362     2.404
   132   1 H        0.805     0.328     0.643     1.259
   133   1 H        0.804     0.321     0.662     1.278
   134   1 H        0.805     0.304     0.709     1.323
   135   6 C        3.072     0.040    27.026     8.524
   136   6 C        3.082     0.035    27.118     8.537
   137   7 N        2.813    -0.035    21.917     6.953
   138   7 N        2.811    -0.028    21.785     6.932
   139   6 C        2.970     0.196    23.836     8.008
   140   1 H        0.924     0.097     1.816     2.107
   141   1 H        0.924     0.116     1.650     2.008
   142   6 C        2.911    -0.045    29.111     8.847
   143   6 C        2.911    -0.047    29.170     8.856
   144   6 C        3.738    -0.021    21.025     6.543
   145   1 H        0.924     0.067     2.121     2.278
   146   1 H        0.924     0.096     1.821     2.111
   147   1 H        0.925     0.084     1.933     2.174
   148   8 O        1.656    -0.459    22.019     6.334
   149   1 H        0.923     0.045     2.379     2.412
   150   1 H        0.804     0.333     0.630     1.247
   151   7 N        2.636    -0.266    26.902     7.703
   152   1 H        0.860     0.225     0.986     1.556
   153   6 C        2.926    -0.023    28.573     8.766
   154   6 C        2.926    -0.037    28.914     8.818
   155   1 H        0.926     0.072     2.065     2.247
   156   1 H        0.926     0.094     1.840     2.121
   157   1 H        0.926     0.066     2.126     2.280
   158   1 H        0.926     0.086     1.919     2.167
   159   1 H        0.860     0.260     0.845     1.440

Wiberg/Mayer (AO) data.
largest (>0.10) Wiberg bond orders for each atom

     #   Z sym  total        # sym  WBO       # sym  WBO       # sym  WBO
 ---------------------------------------------------------------------------
     1   1 H    0.998 --   103 C    0.957
     2   6 C    3.928 --    11 O    0.982    30 O    0.975     3 C    0.953
                            13 H    0.946
     3   6 C    3.961 --     8 O    0.998     4 C    0.972    14 H    0.956
                             2 C    0.953
     4   6 C    3.965 --     9 O    1.006     3 C    0.972     5 C    0.962
                            15 H    0.952
     5   6 C    3.942 --     6 C    0.964     4 C    0.962    10 O    0.961
                            16 H    0.956
     6   6 C    3.942 --     7 C    0.988     5 C    0.964    11 O    0.959
                            17 H    0.954
     7   6 C    3.957 --    12 O    0.998     6 C    0.988    19 H    0.968
                            18 H    0.965
     8   8 O    1.979 --     3 C    0.998    20 H    0.869
     9   8 O    1.955 --     4 C    1.006    21 H    0.860
    10   8 O    2.104 --   114 C    0.983     5 C    0.961
    11   8 O    2.090 --     2 C    0.982     6 C    0.959
    12   8 O    1.946 --     7 C    0.998    22 H    0.895
    13   1 H    0.997 --     2 C    0.946
    14   1 H    0.997 --     3 C    0.956
    15   1 H    0.998 --     4 C    0.952
    16   1 H    0.998 --     5 C    0.956
    17   1 H    0.995 --     6 C    0.954
    18   1 H    0.998 --     7 C    0.965
    19   1 H    0.997 --     7 C    0.968
    20   1 H    0.888 --     8 O    0.869
    21   1 H    0.892 --     9 O    0.860
    22   1 H    0.909 --    12 O    0.895
    23   6 C    3.926 --    31 O    0.989    49 O    0.962    24 C    0.957
                            33 H    0.947
    24   6 C    3.961 --    29 O    0.997    25 C    0.971    23 C    0.957
                            34 H    0.955
    25   6 C    3.967 --   148 O    1.010    24 C    0.971    26 C    0.964
                           149 H    0.952
    26   6 C    3.942 --    30 O    0.964    25 C    0.964    27 C    0.961
                            35 H    0.955
    27   6 C    3.947 --    28 C    0.988    31 O    0.962    26 C    0.961
                            36 H    0.955
    28   6 C    3.959 --    32 O    0.999    27 C    0.988    38 H    0.970
                            37 H    0.963
    29   8 O    1.975 --    24 C    0.997    39 H    0.860
    30   8 O    2.098 --     2 C    0.975    26 C    0.964
    31   8 O    2.098 --    23 C    0.989    27 C    0.962
    32   8 O    1.959 --    28 C    0.999    40 H    0.893
    33   1 H    0.995 --    23 C    0.947
    34   1 H    0.997 --    24 C    0.955
    35   1 H    0.998 --    26 C    0.955
    36   1 H    0.997 --    27 C    0.955
    37   1 H    0.997 --    28 C    0.963
    38   1 H    0.998 --    28 C    0.970
    39   1 H    0.885 --    29 O    0.860
    40   1 H    0.907 --    32 O    0.893
    41   6 C    3.923 --    66 O    0.975    50 O    0.973    42 C    0.956
                            51 H    0.944
    42   6 C    3.963 --    47 O    1.003    43 C    0.968    52 H    0.956
                            41 C    0.956
    43   6 C    3.966 --    48 O    1.012    42 C    0.968    53 H    0.956
                            44 C    0.955
    44   6 C    3.946 --    49 O    0.972    45 C    0.965    54 H    0.956
                            43 C    0.955
    45   6 C    3.945 --    46 C    0.989    44 C    0.965    50 O    0.958
                            55 H    0.955
    46   6 C    3.950 --    45 C    0.989   138 N    0.979   140 H    0.953
                           141 H    0.951
    47   8 O    1.964 --    42 C    1.003    56 H    0.870
    48   8 O    1.954 --    43 C    1.012    57 H    0.834
    49   8 O    2.089 --    44 C    0.972    23 C    0.962
    50   8 O    2.121 --    41 C    0.973    45 C    0.958
    51   1 H    0.995 --    41 C    0.944
    52   1 H    0.998 --    42 C    0.956
    53   1 H    0.998 --    43 C    0.956
    54   1 H    0.998 --    44 C    0.956
    55   1 H    0.996 --    45 C    0.955
    56   1 H    0.889 --    47 O    0.870
    57   1 H    0.886 --    48 O    0.834
    58   6 C    3.924 --    87 O    0.981    67 O    0.968    59 C    0.956
                            69 H    0.946
    59   6 C    3.965 --    64 O    1.008    60 C    0.967    58 C    0.956
                            70 H    0.955
    60   6 C    3.964 --    65 O    1.005    61 C    0.968    59 C    0.967
                            71 H    0.950
    61   6 C    3.938 --    60 C    0.968    62 C    0.966    72 H    0.957
                            66 O    0.955
    62   6 C    3.939 --    63 C    0.971    61 C    0.966    67 O    0.959
                            73 H    0.950
    63   6 C    3.957 --    68 O    1.014    62 C    0.971    75 H    0.965
                            74 H    0.965
    64   8 O    1.958 --    59 C    1.008    76 H    0.875
    65   8 O    1.953 --    60 C    1.005    77 H    0.863
    66   8 O    2.081 --    41 C    0.975    61 C    0.955
    67   8 O    2.091 --    58 C    0.968    62 C    0.959
    68   8 O    1.962 --    63 C    1.014    78 H    0.870
    69   1 H    0.997 --    58 C    0.946
    70   1 H    0.997 --    59 C    0.955
    71   1 H    0.997 --    60 C    0.950
    72   1 H    0.997 --    61 C    0.957
    73   1 H    0.997 --    62 C    0.950
    74   1 H    0.996 --    63 C    0.965
    75   1 H    0.996 --    63 C    0.965
    76   1 H    0.891 --    64 O    0.875
    77   1 H    0.895 --    65 O    0.863
    78   1 H    0.899 --    68 O    0.870
    79   6 C    3.925 --    88 O    0.975   107 O    0.973    80 C    0.957
                            90 H    0.947
    80   6 C    3.963 --    85 O    1.001    81 C    0.972    79 C    0.957
                            91 H    0.955
    81   6 C    3.965 --    86 O    1.008    80 C    0.972    82 C    0.961
                            92 H    0.952
    82   6 C    3.943 --    87 O    0.964    83 C    0.961    81 C    0.961
                            93 H    0.957
    83   6 C    3.944 --    84 C    0.982    82 C    0.961    88 O    0.961
                            94 H    0.948
    84   6 C    3.942 --    89 O    0.986    83 C    0.982    96 H    0.971
                            95 H    0.954
    85   8 O    1.973 --    80 C    1.001    97 H    0.864
    86   8 O    1.962 --    81 C    1.008    98 H    0.871
    87   8 O    2.105 --    58 C    0.981    82 C    0.964
    88   8 O    2.082 --    79 C    0.975    83 C    0.961
    89   8 O    1.975 --    84 C    0.986    99 H    0.890
    90   1 H    0.995 --    79 C    0.947
    91   1 H    0.997 --    80 C    0.955
    92   1 H    0.997 --    81 C    0.952
    93   1 H    0.998 --    82 C    0.957
    94   1 H    0.998 --    83 C    0.948
    95   1 H    0.992 --    84 C    0.954
    96   1 H    0.996 --    84 C    0.971
    97   1 H    0.886 --    85 O    0.864
    98   1 H    0.892 --    86 O    0.871
    99   1 H    0.904 --    89 O    0.890
   100   6 C    3.920 --   108 O    0.979   122 O    0.975   101 C    0.953
                           109 H    0.940
   101   6 C    3.960 --   105 O    0.998   102 C    0.969   110 H    0.957
                           100 C    0.953
   102   6 C    3.962 --   106 O    1.008   101 C    0.969   103 C    0.957
                           111 H    0.954
   103   6 C    3.942 --   107 O    0.964   104 C    0.964   102 C    0.957
                             1 H    0.957
   104   6 C    3.950 --   144 C    0.977   108 O    0.969   103 C    0.964
                           145 H    0.955
   105   8 O    1.980 --   101 C    0.998   112 H    0.868
   106   8 O    1.954 --   102 C    1.008   113 H    0.844
   107   8 O    2.092 --    79 C    0.973   103 C    0.964
   108   8 O    2.095 --   100 C    0.979   104 C    0.969
   109   1 H    0.993 --   100 C    0.940
   110   1 H    0.998 --   101 C    0.957
   111   1 H    0.997 --   102 C    0.954
   112   1 H    0.889 --   105 O    0.868
   113   1 H    0.888 --   106 O    0.844
   114   6 C    3.926 --    10 O    0.983   123 O    0.972   115 C    0.955
                           125 H    0.945
   115   6 C    3.962 --   120 O    1.002   116 C    0.962   126 H    0.956
                           114 C    0.955
   116   6 C    3.963 --   121 O    1.004   117 C    0.971   115 C    0.962
                           127 H    0.953
   117   6 C    3.940 --   116 C    0.971   118 C    0.962   122 O    0.956
                           128 H    0.955
   118   6 C    3.941 --   119 C    0.977   123 O    0.962   117 C    0.962
                           129 H    0.953
   119   6 C    3.956 --   124 O    1.012   118 C    0.977   130 H    0.968
                           131 H    0.964
   120   8 O    1.963 --   115 C    1.002   132 H    0.872
   121   8 O    1.957 --   116 C    1.004   133 H    0.851
   122   8 O    2.080 --   100 C    0.975   117 C    0.956
   123   8 O    2.086 --   114 C    0.972   118 C    0.962
   124   8 O    1.968 --   119 C    1.012   134 H    0.878
   125   1 H    0.997 --   114 C    0.945
   126   1 H    0.998 --   115 C    0.956
   127   1 H    0.995 --   116 C    0.953
   128   1 H    0.997 --   117 C    0.955
   129   1 H    0.997 --   118 C    0.953
   130   1 H    0.995 --   119 C    0.968
   131   1 H    0.997 --   119 C    0.964
   132   1 H    0.892 --   120 O    0.872
   133   1 H    0.897 --   121 O    0.851
   134   1 H    0.907 --   124 O    0.878
   135   6 C    3.948 --   142 C    1.373   136 C    1.292   137 N    1.077
   136   6 C    3.946 --   143 C    1.372   135 C    1.292   138 N    1.077
   137   7 N    3.579 --   139 C    1.241   135 C    1.077   144 C    0.985
   138   7 N    3.592 --   139 C    1.259   136 C    1.077    46 C    0.979
   139   6 C    3.970 --   151 N    1.306   138 N    1.259   137 N    1.241
   140   1 H    0.990 --    46 C    0.953
   141   1 H    0.986 --    46 C    0.951
   142   6 C    3.983 --   154 C    1.455   135 C    1.373   158 H    0.957
                           143 C    0.114
   143   6 C    3.980 --   153 C    1.458   136 C    1.372   156 H    0.947
                           142 C    0.114
   144   6 C    3.957 --   137 N    0.985   104 C    0.977   146 H    0.959
                           147 H    0.957
   145   1 H    0.995 --   104 C    0.955
   146   1 H    0.990 --   144 C    0.959
   147   1 H    0.992 --   144 C    0.957
   148   8 O    1.949 --    25 C    1.010   150 H    0.839
   149   1 H    0.998 --    25 C    0.952
   150   1 H    0.889 --   148 O    0.839
   151   7 N    3.360 --   139 C    1.306   152 H    0.899   159 H    0.870
   152   1 H    0.948 --   151 N    0.899
   153   6 C    3.982 --   143 C    1.458   154 C    1.413   155 H    0.967
   154   6 C    3.983 --   142 C    1.455   153 C    1.413   157 H    0.964
   155   1 H    0.994 --   153 C    0.967
   156   1 H    0.991 --   143 C    0.947
   157   1 H    0.995 --   154 C    0.964
   158   1 H    0.992 --   142 C    0.957
   159   1 H    0.932 --   151 N    0.870
 ---------------------------------------------------------------------------

molecular dipole:
                 x           y           z       tot (Debye)
 q only:      -50.801     -53.509     -27.794
   full:      -50.990     -53.527     -27.499     200.481

           -------------------------------------------------
          | TOTAL ENERGY             -285.459788481171 Eh   |
          | GRADIENT NORM               0.000427660976 Eh/α |
          | HOMO-LUMO GAP               3.298784884448 eV   |
           -------------------------------------------------

 * finished run on 2022/03/02 at 03:03:11.578
