   * xtb version 6.4.1 (bd6e46d) compiled by 'conda@4901f00b25ba' on 2021-06-10
          program call               : /jet/home/maihfly/.conda/envs/Cyclodextrins-Env/bin/xtb bBiCyDNH_opt_xtb.xyz --chrg 0 --uhf 0 --opt
          number of atoms            :                   158
          number of electrons        :                   482
          charge                     :                     0
          spin                       :                   0.0

   ID    Z sym.   atoms
    1    1 H      1, 13-22, 33-40, 51-57, 69-78, 90-99, 109-113, 125-134,
                  140, 141, 145-147, 149, 150, 152, 155-158
    2    6 C      2-7, 23-28, 41-46, 58-63, 79-84, 100-104, 114-119, 135,
                  136, 139, 142-144, 153, 154
    3    8 O      8-12, 29-32, 47-50, 64-68, 85-89, 105-108, 120-124, 148
    4    7 N      137, 138, 151

          :  Hamiltonian                  GFN2-xTB          :
 * total energy  :  -285.2344738 Eh     change       -0.2540503E-08 Eh
 * total energy  :  -285.2664654 Eh     change       -0.3199155E-01 Eh
 * total energy  :  -285.2802580 Eh     change       -0.1379262E-01 Eh
 * total energy  :  -285.2838551 Eh     change       -0.3597139E-02 Eh
 * total energy  :  -285.2859147 Eh     change       -0.2059597E-02 Eh
 * total energy  :  -285.2872183 Eh     change       -0.1303589E-02 Eh
 * total energy  :  -285.2881740 Eh     change       -0.9557027E-03 Eh
 * total energy  :  -285.2889183 Eh     change       -0.7442876E-03 Eh
 * total energy  :  -285.2895338 Eh     change       -0.6155605E-03 Eh
 * total energy  :  -285.2900845 Eh     change       -0.5506098E-03 Eh
 * total energy  :  -285.3052724 Eh     change       -0.5352737E-04 Eh
 * total energy  :  -285.3053119 Eh     change       -0.3951131E-04 Eh
 * total energy  :  -285.3053423 Eh     change       -0.3037315E-04 Eh
 * total energy  :  -285.3053650 Eh     change       -0.2270331E-04 Eh
 * total energy  :  -285.3053831 Eh     change       -0.1807921E-04 Eh
 * total energy  :  -285.3053922 Eh     change       -0.9120350E-05 Eh
 * total energy  :  -285.3054029 Eh     change       -0.1072524E-04 Eh
 * total energy  :  -285.3054098 Eh     change       -0.6904804E-05 Eh
 * total energy  :  -285.3054138 Eh     change       -0.4022228E-05 Eh
   *** GEOMETRY OPTIMIZATION CONVERGED AFTER 68 ITERATIONS ***

 final structure:
================
158
 xtb: 6.4.1 (bd6e46d)
H       -31.58161265394648  -29.71054099182594  -13.51139351300219
C       -21.63923466730013  -27.26192677839818   -9.60186941412434
C       -21.96524456034338  -27.97689145688063   -8.27850253697167
C       -23.47090737018767  -28.24480614984184   -8.21906514738682
C       -24.25624357179898  -26.94845882235564   -8.48202610767907
C       -23.77355281849650  -26.31213654497382   -9.79451723108527
C       -24.47172176371279  -24.99978345760252  -10.15771932324197
O       -21.22751924479874  -29.17025998757904   -8.23606672470754
O       -23.77493501590349  -28.78587409584997   -6.95952083497932
O       -25.61358679376333  -27.32987348664248   -8.57342382986748
O       -22.37467776257400  -26.07177473272196   -9.71353627968374
O       -24.94441743237928  -25.12182168964934  -11.48782592030032
H       -20.58252790650052  -26.96119741748625   -9.61498600680872
H       -21.68838624854214  -27.31884819545076   -7.44104956696267
H       -23.72927833709755  -28.95797357727025   -9.01745789074927
H       -24.09806174096324  -26.24945772653527   -7.64956721763114
H       -23.97556002537900  -27.02758195267567  -10.60367030956995
H       -25.30558680768900  -24.80985284159935   -9.47324359895265
H       -23.74091874334994  -24.18688025633229  -10.07483544840859
H       -21.59520964361580  -29.69778429817782   -7.51432794369653
H       -24.74211925793657  -28.80868227739279   -6.85742450790814
H       -25.36723408093279  -24.29951241575165  -11.76241833434974
C       -20.94146448839473  -29.05132578984042  -14.52260392538266
C       -20.24802982268795  -29.87822418224578  -13.42643481518902
C       -21.01244014698000  -29.68675715348988  -12.12028522198798
C       -21.10231429687103  -28.19138833932909  -11.78072996921876
C       -21.70232903706386  -27.41558680732655  -12.96876259115407
C       -21.66140765774103  -25.88241072791028  -12.80739623934773
O       -20.20835131216234  -31.22716238450151  -13.81437990811716
O       -21.92904355417071  -28.15256148480361  -10.62975961018364
O       -20.97991695473380  -27.70192363476858  -14.15937767294201
O       -22.77653148217998  -25.24751225731993  -13.36606347899450
H       -20.33214072053626  -29.07881304415059  -15.43488953403838
H       -19.22491807184814  -29.49097278882224  -13.29837400491520
H       -20.09941479528773  -27.80617072018591  -11.54912818730111
H       -22.74632210647618  -27.74523183708699  -13.07876985729965
H       -21.55295222489550  -25.62145610472807  -11.75030873124479
H       -20.79012911352774  -25.52129713856150  -13.35930845393775
H       -20.03662558131347  -31.74168025851007  -13.01419976785353
H       -23.54207468824348  -25.36146651533924  -12.77596181671036
C       -24.15520684549644  -30.63698454317466  -18.31637788901991
C       -22.68637389880115  -31.07495247147102  -18.15403303150907
C       -22.31026040067899  -31.04948028912916  -16.67207675034378
C       -22.60607553391725  -29.64311267818999  -16.12175569145708
C       -24.11135389857949  -29.36948861946739  -16.31177039747578
C       -24.48969975898602  -27.98391596857164  -15.79772865359189
O       -22.53977925280806  -32.37046099530669  -18.68524824453024
O       -20.95496428570119  -31.41803719370866  -16.58155759388188
O       -22.22520789740837  -29.56530162672793  -14.75774504357918
O       -24.38339124399156  -29.39717578991885  -17.71300225875428
H       -24.38537881538820  -30.49429981004291  -19.37850810657392
H       -22.03846227308535  -30.36868887376844  -18.69430736810922
H       -22.94044857515523  -31.77030854473610  -16.13032075542840
H       -22.04725749677716  -28.89811597896119  -16.70501014689386
H       -24.70980679311700  -30.13518251100643  -15.80688601063756
H       -21.67367771253942  -32.68530307256347  -18.39002175666301
H       -20.70139390003981  -31.45093791276645  -15.64404952817955
C       -28.25009925477723  -33.93027448140445  -18.16273150956155
C       -26.92505775526808  -34.69013380635787  -18.30996431761950
C       -25.78962535225134  -33.76572560335453  -17.87007586520411
C       -25.83356574267195  -32.38956802027198  -18.55714392090843
C       -27.26380309666574  -31.81397752220579  -18.57575788688192
C       -27.49368447945236  -30.65719220960348  -19.56110636404432
O       -26.96788797144642  -35.85213876234899  -17.52505429177504
O       -24.56932566016049  -34.41721469293996  -18.12307742283596
O       -24.97317941279912  -31.61512087253347  -17.74074434602507
O       -28.21905021412699  -32.79381847344970  -18.97934767817495
O       -26.58080619171414  -29.60444738616491  -19.47785202556186
H       -29.08430101159927  -34.54377269130897  -18.53465782197615
H       -26.79231463732255  -34.94419530969099  -19.37314808432289
H       -25.90429996367699  -33.57944887982928  -16.79007491255051
H       -25.44011646993125  -32.47339710422349  -19.57896760055482
H       -27.47368503733276  -31.47682272909896  -17.55140694631840
H       -27.42432615097751  -31.04808714529382  -20.58056317209256
H       -28.51960876115107  -30.29738817858012  -19.39603364167086
H       -26.05657575306125  -36.16760356928049  -17.45795976658764
H       -23.87673728914827  -33.73772530786283  -18.20493384515367
H       -26.43952997619160  -29.36017532694661  -18.55288824888186
C       -31.16088490047445  -32.04472195877521  -14.22222128589559
C       -30.73747061481376  -33.49679499711585  -13.95945716722338
C       -29.48236615637146  -33.77494803450320  -14.78034779477382
C       -29.71511345885827  -33.47398689433315  -16.27279967656814
C       -30.30555470814711  -32.05861687313305  -16.43950114156120
C       -30.82614024473530  -31.72134744880782  -17.83740469369191
O       -30.51559888498275  -33.67042003206382  -12.58310295934385
O       -29.11166230196629  -35.11664775629249  -14.59030325087910
O       -28.41492538449898  -33.62241433177854  -16.81462974756514
O       -31.42172720327975  -31.86496354700677  -15.58016826725718
O       -30.71566670837677  -30.32290029960058  -18.00202687533288
H       -32.11532703092945  -31.84089389842730  -13.72207466505028
H       -31.54505980204861  -34.16240262824356  -14.30136278439782
H       -28.68162779678098  -33.10446582242191  -14.43066243506105
H       -30.40020407996045  -34.22023297008700  -16.70267455078083
H       -29.51425087376050  -31.34083932940995  -16.18773749856047
H       -30.24106074524302  -32.23985173684736  -18.60264389596281
H       -31.87442499495778  -32.04052810539189  -17.88803513865466
H       -29.98879137764786  -34.47507461494991  -12.48545218145208
H       -28.44176972630590  -35.32917251697151  -15.25611837064389
H       -31.15299818089427  -30.07117122695110  -18.82221595009668
C       -30.35948231763144  -27.84260778735991  -11.23249134768127
C       -31.31768612353084  -29.01569357642689  -10.94145278698348
C       -30.76731504918617  -30.29100142446724  -11.58222570501788
C       -30.61580303297211  -30.02290551741459  -13.09116198641253
C       -29.61640609018949  -28.86364622800203  -13.24767856090744
O       -31.46709533385692  -29.17409418658871   -9.55160648974912
O       -31.65351086514734  -31.33808395605892  -11.27036369668751
O       -30.15251110157395  -31.17977665371958  -13.76167884711712
O       -30.14799253747115  -27.70921295313760  -12.60467740050903
H       -30.81897143467626  -26.89909525971882  -10.91583602677897
H       -32.29254589514159  -28.78518141909710  -11.39708590611437
H       -29.77097439786391  -30.50244824707358  -11.16592471223100
H       -31.91516931824691  -30.02366905986732   -9.42528109178692
H       -31.27091908934877  -32.17347412858319  -11.58633366879655
C       -26.55420613622506  -26.68577449788075   -7.77200785515026
C       -27.52412336425933  -27.75374188936452   -7.25817874562788
C       -28.20599429070759  -28.39728469807638   -8.46666204437152
C       -28.86264249089652  -27.34652512499303   -9.37653430702294
C       -27.92400661585869  -26.14569744909222   -9.63937484458552
C       -28.65961204300962  -24.88598313548986  -10.13012206861460
O       -26.79346255823436  -28.70335505398093   -6.52385683220190
O       -29.13112106603856  -29.34039833972007   -7.98822386987861
O       -29.12447371957683  -28.03899217291599  -10.58989307226408
O       -27.25281056906265  -25.69324377485347   -8.46682451239450
O       -29.46576177233509  -25.06508205479439  -11.25237259447676
H       -26.07760366339285  -26.16822680029881   -6.92776878776411
H       -28.28378937924057  -27.27483713155391   -6.62235604592664
H       -27.43085290900928  -28.90426667714822   -9.06327552322168
H       -29.79703550001141  -27.00108852041796   -8.91662592207567
H       -27.18608953153225  -26.47468535124825  -10.38698326667819
H       -29.31728002735146  -24.53833421259569   -9.32874317439691
H       -27.89991590135510  -24.11028010541126  -10.30537844343628
H       -27.35665092913992  -29.48653222330449   -6.45364503603886
H       -29.90855369950472  -29.34442077677129   -8.57645579200832
H       -28.94802852611415  -25.44528429798789  -11.97607769681099
C       -27.68012364461254  -26.64155798103628  -14.71307908895789
C       -26.31061062995976  -26.54194885544421  -15.01227217554857
N       -28.04649498934842  -27.95092213773026  -14.93106349643232
N       -25.87177008136661  -27.79232567861823  -15.40714894385644
C       -26.91653341836504  -28.68582729646947  -15.31136991314271
H       -24.26335396327517  -27.26369851831771  -16.59302001854768
H       -23.85569935433491  -27.75641295536757  -14.93480178316410
C       -28.40645652195471  -25.54776293793326  -14.28696798342063
C       -25.63732765780457  -25.34410262262415  -14.87017908380587
C       -29.35979932269109  -28.48684467390204  -14.71740947465313
H       -28.66855736755277  -29.15039832048426  -12.77283843329378
H       -30.09945077604045  -27.73839737660995  -15.01099435761535
H       -29.49528142394177  -29.36921072433388  -15.34600185928196
O       -20.35501654628295  -30.40138359826238  -11.10362579837298
H       -22.03739455416017  -30.06654977084712  -12.25487030086544
H       -20.69038994489348  -30.08601380482238  -10.24929455600056
N       -26.82518523321830  -29.93565947495228  -15.52350455258842
H       -27.68233686927726  -30.44615872919773  -15.34973343015658
C       -26.36878933310313  -24.24926815369236  -14.42457654494757
C       -27.72337261822398  -24.34486541622132  -14.14422522902740
H       -25.86556090903583  -23.30144645692645  -14.30578139094906
H       -24.58386258373072  -25.25322522998455  -15.07372889877310
H       -28.26441955777791  -23.47280228758026  -13.80859006564134
H       -29.46052897783853  -25.62493201596164  -14.07347325924090

          :  Hamiltonian                  GFN2-xTB          :
         :: total energy            -285.305413847273 Eh    ::
         :: gradient norm              0.000419136951 Eh/a0 ::
         :: HOMO-LUMO gap              3.421344671851 eV    ::
         :: SCC energy              -287.614910258199 Eh    ::
         :: -> dispersion             -0.211184167826 Eh    ::
         :: repulsion energy           2.297742594007 Eh    ::

    * Orbital Energies and Occupations

         #    Occupation            Energy/Eh            Energy/eV
      -------------------------------------------------------------
         1        2.0000           -0.7435932             -20.2342
       ...           ...                  ...                  ...
       229        2.0000           -0.4184081             -11.3855
       230        2.0000           -0.4175370             -11.3618
       231        2.0000           -0.4154368             -11.3046
       232        2.0000           -0.4147061             -11.2847
       233        2.0000           -0.4115144             -11.1979
       234        2.0000           -0.4097028             -11.1486
       235        2.0000           -0.4092416             -11.1360
       236        2.0000           -0.4071725             -11.0797
       237        2.0000           -0.4021648             -10.9435
       238        2.0000           -0.3960455             -10.7769
       239        2.0000           -0.3856286             -10.4935
       240        2.0000           -0.3728637             -10.1461
       241        2.0000           -0.3513001              -9.5594 (HOMO)
       242                         -0.2255680              -6.1380 (LUMO)
       243                         -0.2101903              -5.7196
       244                         -0.1643901              -4.4733
       245                         -0.0857872              -2.3344
       246                         -0.0592563              -1.6124
       247                         -0.0550635              -1.4984
       248                         -0.0538397              -1.4651
       249                         -0.0474811              -1.2920
       250                         -0.0454768              -1.2375
       251                         -0.0409009              -1.1130
       252                         -0.0380868              -1.0364
       ...                                ...                  ...
       413                          0.7043023              19.1650
      -------------------------------------------------------------
                  HL-Gap            0.1257321 Eh            3.4213 eV

     #   Z          covCN         q      C6AA      α(0)
     1   1 H        0.923     0.041     2.434     2.440
     2   6 C        3.649     0.241    17.154     5.950
     3   6 C        3.727     0.095    19.100     6.240
     4   6 C        3.731     0.098    19.058     6.232
     5   6 C        3.738     0.091    19.156     6.245
     6   6 C        3.759     0.098    19.018     6.217
     7   6 C        3.673     0.070    19.637     6.351
     8   8 O        1.656    -0.442    21.671     6.284
     9   8 O        1.655    -0.454    21.925     6.321
    10   8 O        1.704    -0.325    19.434     5.952
    11   8 O        1.701    -0.336    19.637     5.983
    12   8 O        1.655    -0.446    21.772     6.299
    13   1 H        0.923     0.048     2.345     2.395
    14   1 H        0.923     0.040     2.444     2.445
    15   1 H        0.923     0.049     2.333     2.389
    16   1 H        0.923     0.038     2.478     2.462
    17   1 H        0.923     0.071     2.079     2.255
    18   1 H        0.924     0.052     2.292     2.368
    19   1 H        0.924     0.056     2.252     2.347
    20   1 H        0.805     0.327     0.645     1.261
    21   1 H        0.804     0.328     0.642     1.258
    22   1 H        0.805     0.308     0.697     1.311
    23   6 C        3.646     0.236    17.232     5.965
    24   6 C        3.728     0.095    19.110     6.241
    25   6 C        3.733     0.100    19.014     6.224
    26   6 C        3.736     0.089    19.181     6.250
    27   6 C        3.743     0.089    19.176     6.247
    28   6 C        3.674     0.068    19.669     6.355
    29   8 O        1.656    -0.444    21.727     6.292
    30   8 O        1.704    -0.327    19.463     5.956
    31   8 O        1.702    -0.328    19.496     5.961
    32   8 O        1.655    -0.448    21.809     6.304
    33   1 H        0.924     0.058     2.222     2.331
    34   1 H        0.923     0.039     2.462     2.454
    35   1 H        0.923     0.036     2.501     2.473
    36   1 H        0.923     0.048     2.347     2.396
    37   1 H        0.924     0.042     2.417     2.431
    38   1 H        0.924     0.070     2.089     2.260
    39   1 H        0.805     0.330     0.636     1.253
    40   1 H        0.804     0.316     0.676     1.291
    41   6 C        3.637     0.230    17.347     5.992
    42   6 C        3.729     0.091    19.160     6.249
    43   6 C        3.731     0.094    19.111     6.240
    44   6 C        3.748     0.090    19.156     6.242
    45   6 C        3.750     0.087    19.203     6.250
    46   6 C        3.743    -0.006    20.751     6.499
    47   8 O        1.656    -0.446    21.752     6.296
    48   8 O        1.655    -0.465    22.150     6.353
    49   8 O        1.701    -0.327    19.475     5.958
    50   8 O        1.701    -0.319    19.332     5.936
    51   1 H        0.924     0.070     2.089     2.260
    52   1 H        0.923     0.037     2.494     2.470
    53   1 H        0.923     0.045     2.380     2.412
    54   1 H        0.923     0.041     2.436     2.441
    55   1 H        0.924     0.099     1.793     2.094
    56   1 H        0.805     0.327     0.646     1.263
    57   1 H        0.804     0.329     0.640     1.257
    58   6 C        3.640     0.242    17.170     5.959
    59   6 C        3.727     0.097    19.078     6.236
    60   6 C        3.732     0.099    19.031     6.227
    61   6 C        3.733     0.093    19.125     6.242
    62   6 C        3.745     0.085    19.242     6.257
    63   6 C        3.675     0.072    19.590     6.342
    64   8 O        1.656    -0.443    21.697     6.288
    65   8 O        1.655    -0.462    22.099     6.346
    66   8 O        1.704    -0.324    19.420     5.950
    67   8 O        1.702    -0.344    19.785     6.005
    68   8 O        1.656    -0.439    21.627     6.278
    69   1 H        0.923     0.041     2.442     2.444
    70   1 H        0.923     0.039     2.457     2.451
    71   1 H        0.923     0.055     2.260     2.351
    72   1 H        0.923     0.045     2.388     2.416
    73   1 H        0.923     0.060     2.197     2.318
    74   1 H        0.924     0.060     2.198     2.319
    75   1 H        0.923     0.046     2.367     2.406
    76   1 H        0.805     0.326     0.649     1.265
    77   1 H        0.804     0.328     0.641     1.258
    78   1 H        0.805     0.314     0.681     1.296
    79   6 C        3.650     0.236    17.209     5.959
    80   6 C        3.727     0.095    19.111     6.242
    81   6 C        3.734     0.102    18.981     6.218
    82   6 C        3.734     0.089    19.195     6.253
    83   6 C        3.747     0.101    18.986     6.215
    84   6 C        3.675     0.069    19.651     6.352
    85   8 O        1.656    -0.446    21.769     6.298
    86   8 O        1.656    -0.448    21.803     6.303
    87   8 O        1.705    -0.323    19.400     5.947
    88   8 O        1.703    -0.326    19.457     5.955
    89   8 O        1.656    -0.437    21.578     6.271
    90   1 H        0.924     0.060     2.201     2.320
    91   1 H        0.923     0.041     2.438     2.442
    92   1 H        0.923     0.054     2.274     2.358
    93   1 H        0.923     0.036     2.507     2.476
    94   1 H        0.924     0.056     2.247     2.344
    95   1 H        0.924     0.055     2.262     2.352
    96   1 H        0.924     0.045     2.385     2.415
    97   1 H        0.805     0.331     0.635     1.252
    98   1 H        0.805     0.326     0.649     1.265
    99   1 H        0.805     0.299     0.723     1.336
   100   6 C        3.635     0.230    17.347     5.993
   101   6 C        3.729     0.090    19.178     6.252
   102   6 C        3.732     0.095    19.096     6.238
   103   6 C        3.749     0.092    19.121     6.236
   104   6 C        3.749     0.099    19.012     6.219
   105   8 O        1.655    -0.445    21.741     6.294
   106   8 O        1.655    -0.463    22.117     6.349
   107   8 O        1.701    -0.331    19.535     5.967
   108   8 O        1.701    -0.317    19.298     5.931
   109   1 H        0.924     0.074     2.046     2.237
   110   1 H        0.923     0.037     2.486     2.466
   111   1 H        0.923     0.043     2.413     2.429
   112   1 H        0.805     0.331     0.634     1.250
   113   1 H        0.804     0.331     0.636     1.253
   114   6 C        3.641     0.242    17.159     5.956
   115   6 C        3.728     0.094    19.120     6.243
   116   6 C        3.731     0.100    19.017     6.225
   117   6 C        3.733     0.092    19.144     6.245
   118   6 C        3.742     0.086    19.226     6.255
   119   6 C        3.676     0.075    19.549     6.335
   120   8 O        1.656    -0.446    21.762     6.297
   121   8 O        1.655    -0.469    22.228     6.364
   122   8 O        1.702    -0.335    19.612     5.979
   123   8 O        1.702    -0.340    19.715     5.995
   124   8 O        1.656    -0.438    21.593     6.273
   125   1 H        0.923     0.047     2.356     2.401
   126   1 H        0.923     0.039     2.457     2.451
   127   1 H        0.923     0.054     2.268     2.355
   128   1 H        0.924     0.047     2.352     2.399
   129   1 H        0.923     0.055     2.256     2.349
   130   1 H        0.924     0.065     2.140     2.288
   131   1 H        0.923     0.035     2.510     2.478
   132   1 H        0.805     0.330     0.638     1.254
   133   1 H        0.804     0.329     0.640     1.256
   134   1 H        0.805     0.311     0.689     1.304
   135   6 C        3.035     0.043    27.007     8.524
   136   6 C        3.058     0.038    27.102     8.537
   137   7 N        2.812    -0.096    23.122     7.142
   138   7 N        2.805    -0.067    22.542     7.052
   139   6 C        2.906     0.206    23.639     7.972
   140   1 H        0.924     0.078     2.001     2.212
   141   1 H        0.924     0.077     2.011     2.218
   142   6 C        2.911    -0.066    29.644     8.928
   143   6 C        2.911    -0.059    29.470     8.902
   144   6 C        3.739    -0.001    20.678     6.488
   145   1 H        0.923     0.056     2.242     2.342
   146   1 H        0.924     0.079     1.993     2.208
   147   1 H        0.924     0.078     1.998     2.211
   148   8 O        1.656    -0.452    21.894     6.316
   149   1 H        0.923     0.050     2.314     2.379
   150   1 H        0.804     0.326     0.648     1.264
   151   7 N        1.778    -0.438    32.423     8.433
   152   1 H        0.860     0.134     1.515     1.928
   153   6 C        2.924    -0.047    29.166     8.856
   154   6 C        2.924    -0.048    29.203     8.862
   155   1 H        0.926     0.033     2.543     2.494
   156   1 H        0.926     0.060     2.197     2.318
   157   1 H        0.926     0.036     2.506     2.476
   158   1 H        0.926     0.048     2.345     2.395

Wiberg/Mayer (AO) data.
largest (>0.10) Wiberg bond orders for each atom

     #   Z sym  total        # sym  WBO       # sym  WBO       # sym  WBO
 ---------------------------------------------------------------------------
     1   1 H    0.998 --   103 C    0.958
     2   6 C    3.929 --    30 O    0.988    11 O    0.970     3 C    0.954
                            13 H    0.946
     3   6 C    3.964 --     8 O    1.003     4 C    0.971    14 H    0.956
                             2 C    0.954
     4   6 C    3.965 --     9 O    1.006     3 C    0.971     5 C    0.962
                            15 H    0.953
     5   6 C    3.943 --     6 C    0.965    10 O    0.964     4 C    0.962
                            16 H    0.955
     6   6 C    3.942 --     7 C    0.989     5 C    0.965    11 O    0.959
                            17 H    0.951
     7   6 C    3.952 --    12 O    0.991     6 C    0.989    19 H    0.968
                            18 H    0.965
     8   8 O    1.960 --     3 C    1.003    20 H    0.875
     9   8 O    1.951 --     4 C    1.006    21 H    0.857
    10   8 O    2.107 --   114 C    0.982     5 C    0.964
    11   8 O    2.086 --     2 C    0.970     6 C    0.959
    12   8 O    1.974 --     7 C    0.991    22 H    0.887
    13   1 H    0.997 --     2 C    0.946
    14   1 H    0.998 --     3 C    0.956
    15   1 H    0.998 --     4 C    0.953
    16   1 H    0.998 --     5 C    0.955
    17   1 H    0.995 --     6 C    0.951
    18   1 H    0.997 --     7 C    0.965
    19   1 H    0.997 --     7 C    0.968
    20   1 H    0.893 --     8 O    0.875
    21   1 H    0.892 --     9 O    0.857
    22   1 H    0.905 --    12 O    0.887
    23   6 C    3.931 --    31 O    0.980    49 O    0.979    24 C    0.954
                            33 H    0.946
    24   6 C    3.962 --    29 O    0.998    25 C    0.974    34 H    0.956
                            23 C    0.954
    25   6 C    3.964 --   148 O    1.002    24 C    0.974    26 C    0.965
                           149 H    0.953
    26   6 C    3.939 --    25 C    0.965    27 C    0.963    30 O    0.958
                            35 H    0.956
    27   6 C    3.940 --    28 C    0.970    26 C    0.963    31 O    0.961
                            36 H    0.951
    28   6 C    3.962 --    32 O    1.020    27 C    0.970    38 H    0.967
                            37 H    0.963
    29   8 O    1.969 --    24 C    0.998    39 H    0.868
    30   8 O    2.110 --     2 C    0.988    26 C    0.958
    31   8 O    2.090 --    23 C    0.980    27 C    0.961
    32   8 O    1.959 --    28 C    1.020    40 H    0.856
    33   1 H    0.996 --    23 C    0.946
    34   1 H    0.998 --    24 C    0.956
    35   1 H    0.998 --    26 C    0.956
    36   1 H    0.998 --    27 C    0.951
    37   1 H    0.998 --    28 C    0.963
    38   1 H    0.995 --    28 C    0.967
    39   1 H    0.891 --    29 O    0.868
    40   1 H    0.900 --    32 O    0.856
    41   6 C    3.928 --    50 O    0.985    66 O    0.976    42 C    0.951
                            51 H    0.945
    42   6 C    3.960 --    47 O    0.995    43 C    0.973    52 H    0.957
                            41 C    0.951
    43   6 C    3.963 --    48 O    1.001    42 C    0.973    44 C    0.961
                            53 H    0.955
    44   6 C    3.942 --    45 C    0.963    49 O    0.962    43 C    0.961
                            54 H    0.957
    45   6 C    3.937 --    46 C    0.994    44 C    0.963    50 O    0.956
                            55 H    0.940
    46   6 C    3.968 --    45 C    0.994   138 N    0.987   140 H    0.960
                           141 H    0.953
    47   8 O    1.974 --    42 C    0.995    56 H    0.873
    48   8 O    1.949 --    43 C    1.001    57 H    0.850
    49   8 O    2.096 --    23 C    0.979    44 C    0.962
    50   8 O    2.096 --    41 C    0.985    45 C    0.956
    51   1 H    0.995 --    41 C    0.945
    52   1 H    0.998 --    42 C    0.957
    53   1 H    0.998 --    43 C    0.955
    54   1 H    0.998 --    44 C    0.957
    55   1 H    0.990 --    45 C    0.940
    56   1 H    0.893 --    47 O    0.873
    57   1 H    0.891 --    48 O    0.850
    58   6 C    3.928 --    87 O    0.982    67 O    0.973    59 C    0.955
                            69 H    0.946
    59   6 C    3.964 --    64 O    1.004    60 C    0.971    70 H    0.956
                            58 C    0.955
    60   6 C    3.964 --    65 O    1.004    59 C    0.971    61 C    0.966
                            71 H    0.951
    61   6 C    3.943 --    60 C    0.966    66 O    0.964    62 C    0.964
                            72 H    0.957
    62   6 C    3.933 --    63 C    0.974    61 C    0.964    73 H    0.952
                            67 O    0.952
    63   6 C    3.959 --    68 O    1.018    62 C    0.974    74 H    0.969
                            75 H    0.962
    64   8 O    1.953 --    59 C    1.004    76 H    0.876
    65   8 O    1.943 --    60 C    1.004    77 H    0.847
    66   8 O    2.098 --    41 C    0.976    61 C    0.964
    67   8 O    2.086 --    58 C    0.973    62 C    0.952
    68   8 O    1.968 --    63 C    1.018    78 H    0.877
    69   1 H    0.998 --    58 C    0.946
    70   1 H    0.998 --    59 C    0.956
    71   1 H    0.997 --    60 C    0.951
    72   1 H    0.998 --    61 C    0.957
    73   1 H    0.996 --    62 C    0.952
    74   1 H    0.996 --    63 C    0.969
    75   1 H    0.998 --    63 C    0.962
    76   1 H    0.894 --    64 O    0.876
    77   1 H    0.892 --    65 O    0.847
    78   1 H    0.902 --    68 O    0.877
    79   6 C    3.930 --    88 O    0.983   107 O    0.972    80 C    0.955
                            90 H    0.947
    80   6 C    3.962 --    85 O    0.998    81 C    0.975    91 H    0.956
                            79 C    0.955
    81   6 C    3.963 --    86 O    1.003    80 C    0.975    82 C    0.963
                            92 H    0.952
    82   6 C    3.944 --    87 O    0.966    81 C    0.963    83 C    0.962
                            93 H    0.956
    83   6 C    3.943 --    84 C    0.988    82 C    0.962    88 O    0.959
                            94 H    0.944
    84   6 C    3.958 --    89 O    1.000    83 C    0.988    96 H    0.968
                            95 H    0.958
    85   8 O    1.965 --    80 C    0.998    97 H    0.869
    86   8 O    1.955 --    81 C    1.003    98 H    0.871
    87   8 O    2.110 --    58 C    0.982    82 C    0.966
    88   8 O    2.092 --    79 C    0.983    83 C    0.959
    89   8 O    1.951 --    84 C    1.000    99 H    0.896
    90   1 H    0.996 --    79 C    0.947
    91   1 H    0.998 --    80 C    0.956
    92   1 H    0.997 --    81 C    0.952
    93   1 H    0.998 --    82 C    0.956
    94   1 H    0.997 --    83 C    0.944
    95   1 H    0.997 --    84 C    0.958
    96   1 H    0.998 --    84 C    0.968
    97   1 H    0.890 --    85 O    0.869
    98   1 H    0.894 --    86 O    0.871
    99   1 H    0.910 --    89 O    0.896
   100   6 C    3.926 --   108 O    0.990   122 O    0.969   101 C    0.952
                           109 H    0.943
   101   6 C    3.959 --   105 O    0.994   102 C    0.972   110 H    0.957
                           100 C    0.952
   102   6 C    3.962 --   106 O    1.001   101 C    0.972   103 C    0.959
                           111 H    0.956
   103   6 C    3.944 --   107 O    0.966   104 C    0.965   102 C    0.959
                             1 H    0.958
   104   6 C    3.942 --   144 C    0.974   103 C    0.965   108 O    0.960
                           145 H    0.957
   105   8 O    1.989 --   101 C    0.994   112 H    0.869
   106   8 O    1.953 --   102 C    1.001   113 H    0.852
   107   8 O    2.092 --    79 C    0.972   103 C    0.966
   108   8 O    2.095 --   100 C    0.990   104 C    0.960
   109   1 H    0.994 --   100 C    0.943
   110   1 H    0.998 --   101 C    0.957
   111   1 H    0.998 --   102 C    0.956
   112   1 H    0.890 --   105 O    0.869
   113   1 H    0.890 --   106 O    0.852
   114   6 C    3.928 --    10 O    0.982   123 O    0.975   115 C    0.956
                           125 H    0.944
   115   6 C    3.962 --   120 O    0.999   116 C    0.970   126 H    0.956
                           114 C    0.956
   116   6 C    3.965 --   121 O    1.005   115 C    0.970   117 C    0.968
                           127 H    0.951
   117   6 C    3.942 --   116 C    0.968   118 C    0.963   122 O    0.962
                           128 H    0.958
   118   6 C    3.937 --   119 C    0.973   117 C    0.963   123 O    0.957
                           129 H    0.957
   119   6 C    3.960 --   124 O    1.020   118 C    0.973   130 H    0.968
                           131 H    0.965
   120   8 O    1.963 --   115 C    0.999   132 H    0.872
   121   8 O    1.939 --   116 C    1.005   133 H    0.833
   122   8 O    2.085 --   100 C    0.969   117 C    0.962
   123   8 O    2.085 --   114 C    0.975   118 C    0.957
   124   8 O    1.973 --   119 C    1.020   134 H    0.872
   125   1 H    0.997 --   114 C    0.944
   126   1 H    0.998 --   115 C    0.956
   127   1 H    0.997 --   116 C    0.951
   128   1 H    0.998 --   117 C    0.958
   129   1 H    0.997 --   118 C    0.957
   130   1 H    0.996 --   119 C    0.968
   131   1 H    0.998 --   119 C    0.965
   132   1 H    0.891 --   120 O    0.872
   133   1 H    0.892 --   121 O    0.833
   134   1 H    0.903 --   124 O    0.872
   135   6 C    3.962 --   142 C    1.386   136 C    1.259   137 N    1.117
   136   6 C    3.959 --   143 C    1.388   135 C    1.259   138 N    1.113
   137   7 N    3.512 --   135 C    1.117   139 C    1.075   144 C    1.006
                           151 N    0.132
   138   7 N    3.532 --   139 C    1.136   136 C    1.113    46 C    0.987
                           151 N    0.110
   139   6 C    3.955 --   151 N    1.638   138 N    1.136   137 N    1.075
   140   1 H    0.994 --    46 C    0.960
   141   1 H    0.994 --    46 C    0.953
   142   6 C    3.986 --   154 C    1.418   135 C    1.386   158 H    0.962
   143   6 C    3.985 --   153 C    1.422   136 C    1.388   156 H    0.963
   144   6 C    3.971 --   137 N    1.006   104 C    0.974   146 H    0.961
                           147 H    0.951
   145   1 H    0.997 --   104 C    0.957
   146   1 H    0.993 --   144 C    0.961
   147   1 H    0.993 --   144 C    0.951
   148   8 O    1.952 --    25 C    1.002   150 H    0.865
   149   1 H    0.997 --    25 C    0.953
   150   1 H    0.893 --   148 O    0.865
   151   7 N    2.931 --   139 C    1.638   152 H    0.937   137 N    0.132
                           138 N    0.110
   152   1 H    0.981 --   151 N    0.937
   153   6 C    3.982 --   154 C    1.441   143 C    1.422   155 H    0.971
   154   6 C    3.981 --   153 C    1.441   142 C    1.418   157 H    0.971
   155   1 H    0.998 --   153 C    0.971
   156   1 H    0.996 --   143 C    0.963
   157   1 H    0.998 --   154 C    0.971
   158   1 H    0.997 --   142 C    0.962
 ---------------------------------------------------------------------------

molecular dipole:
                 x           y           z       tot (Debye)
 q only:       -0.534       0.315       0.764
   full:       -1.005       0.420       1.160       4.044

           -------------------------------------------------
          | TOTAL ENERGY             -285.305413847273 Eh   |
          | GRADIENT NORM               0.000419136951 Eh/α |
          | HOMO-LUMO GAP               3.421344671851 eV   |
           -------------------------------------------------

 * finished run on 2022/03/02 at 03:00:38.193
