                         Program Version 5.0.1 -  RELEASE  -
|  1> ! Opt CPCM(Acetonitrile)
|  2> %cpcm
|  3> surfacetype vdw_gaussian
|  4> end
|  5> %geom MaxIter 100 end
|  6> %output
|  7> xyzfile=True
|  8> end
|  9> %scf
| 10> maxiter 250
| 11> end
| 12> %output
| 13> Print[P_Hirshfeld] = 1
| 14> end
| 15> % maxcore
| 16> 4000
| 17> %pal nprocs 96
| 18> end
| 19> *xyz -1 1
| 20> C    1.02166961   0.93745326  -0.00709148
| 21> C   -0.28620127   1.35971521  -0.00850892
| 22> C   -1.29940815   0.41907900  -0.00131937
| 23> C   -1.02655632  -0.93626016   0.00716737
| 24> C    0.28147795  -1.35778288   0.00856012
| 25> C    1.38221098  -0.44572817   0.00144688
| 26> O    2.59321486  -0.83617358   0.00266917
| 27> F   -2.62161660   0.84539677  -0.00280276
| 28> H    1.82412492   1.66551978  -0.01253444
| 29> H   -0.53338773   2.41324270  -0.01500265
| 30> H   -1.84262894  -1.64698831   0.01253041
| 31> H    0.50700066  -2.41747362   0.01508567
| 32> *
| 33>
| 34>                          ****END OF INPUT****
 Total Charge           Charge          ....   -1
 Multiplicity           Mult            ....    1
 Number of Electrons    NEL             ....   58
FINAL SINGLE POINT ENERGY      -403.610554988914
FINAL SINGLE POINT ENERGY      -403.611906607661
FINAL SINGLE POINT ENERGY      -403.612063678954
FINAL SINGLE POINT ENERGY      -403.612076256715
FINAL SINGLE POINT ENERGY      -403.612079927179
                    ***********************HURRAY********************

CARTESIAN COORDINATES (ANGSTROEM)
---------------------------------
  C      1.024828    0.933007   -0.007102
  C     -0.294606    1.355600   -0.008439
  C     -1.316311    0.424550   -0.001359
  C     -1.031176   -0.928006    0.007069
  C      0.286364   -1.355996    0.008425
  C      1.394412   -0.449790    0.001240
  O      2.593041   -0.836158    0.002923
  F     -2.601461    0.838898   -0.002700
  H      1.822725    1.667430   -0.012569
  H     -0.537669    2.411860   -0.014975
  H     -1.845492   -1.643321    0.012565
  H      0.505245   -2.418073    0.015122

 Multiplicity           Mult            ....    1
 Number of Electrons    NEL             ....   58
 Basis Dimension        Dim             ....  132

ORBITAL ENERGIES
----------------

  NO   OCC          E(Eh)            E(eV)
   0   2.0000     -26.274955      -714.9779
   1   2.0000     -20.431652      -555.9735
   2   2.0000     -11.276638      -306.8529
   3   2.0000     -11.257527      -306.3329
   4   2.0000     -11.223382      -305.4038
   5   2.0000     -11.223347      -305.4028
   6   2.0000     -11.192718      -304.5693
   7   2.0000     -11.192706      -304.5690
   8   2.0000      -1.576638       -42.9025
   9   2.0000      -1.264740       -34.4153
  10   2.0000      -1.105808       -30.0906
  11   2.0000      -0.987340       -26.8669
  12   2.0000      -0.940351       -25.5883
  13   2.0000      -0.816565       -22.2199
  14   2.0000      -0.781411       -21.2633
  15   2.0000      -0.715194       -19.4614
  16   2.0000      -0.679247       -18.4832
  17   2.0000      -0.675743       -18.3879
  18   2.0000      -0.618060       -16.8183
  19   2.0000      -0.583770       -15.8852
  20   2.0000      -0.575567       -15.6620
  21   2.0000      -0.567143       -15.4328
  22   2.0000      -0.518102       -14.0983
  23   2.0000      -0.514298       -13.9948
  24   2.0000      -0.479752       -13.0547
  25   2.0000      -0.428315       -11.6550
  26   2.0000      -0.357387        -9.7250
  27   2.0000      -0.331983        -9.0337
  28   2.0000      -0.241252        -6.5648
  29   0.0000       0.146944         3.9985
  30   0.0000       0.204639         5.5685
  31   0.0000       0.215910         5.8752
  32   0.0000       0.239420         6.5149
  33   0.0000       0.267671         7.2837

MULLIKEN ATOMIC CHARGES
-----------------------
   0 C :   -0.247995
   1 C :   -0.070354
   2 C :    0.271307
   3 C :   -0.070618
   4 C :   -0.247169
   5 C :    0.339358
   6 O :   -0.705777
   7 F :   -0.385605
   8 H :    0.011990
   9 H :    0.046444
  10 H :    0.046515
  11 H :    0.011903
Sum of atomic charges:   -1.0000000

LOEWDIN ATOMIC CHARGES
----------------------
   0 C :   -0.150208
   1 C :   -0.046154
   2 C :    0.010172
   3 C :   -0.046300
   4 C :   -0.149788
   5 C :    0.042269
   6 O :   -0.565033
   7 F :   -0.180682
   8 H :    0.010791
   9 H :    0.032056
  10 H :    0.032080
  11 H :    0.010798

  Mayer bond orders larger than 0.100000
B(  0-C ,  1-C ) :   1.3945 B(  0-C ,  5-C ) :   1.2272 B(  0-C ,  8-H ) :   1.0084
B(  1-C ,  2-C ) :   1.3795 B(  1-C ,  9-H ) :   1.0029 B(  2-C ,  3-C ) :   1.3790
B(  2-C ,  7-F ) :   0.8374 B(  3-C ,  4-C ) :   1.3947 B(  3-C , 10-H ) :   1.0030
B(  4-C ,  5-C ) :   1.2272 B(  4-C , 11-H ) :   1.0085 B(  5-C ,  6-O ) :   1.6004

FINAL SINGLE POINT ENERGY      -403.612080049579

DIPOLE MOMENT
-------------
                                X             Y             Z
Electronic contribution:     -5.23560       1.68705      -0.00600
Nuclear contribution   :      2.58178      -0.83242       0.00284
                        -----------------------------------------
Total Dipole Moment    :     -2.65382       0.85463      -0.00316
                        -----------------------------------------
Magnitude (a.u.)       :      2.78804
Magnitude (Debye)      :      7.08664

Rotational constants in cm-1:     0.192092     0.049849     0.039578
Rotational constants in MHz :  5758.786051  1494.447838  1186.533558

                             ****ORCA TERMINATED NORMALLY****
TOTAL RUN TIME: 0 days 0 hours 5 minutes 17 seconds 581 msec
