   * xtb version 6.4.1 (bd6e46d) compiled by 'conda@4901f00b25ba' on 2021-06-10
          program call               : /jet/home/maihfly/.conda/envs/Cyclodextrins-Env/bin/xtb p-fluorophenolate_opt_xtb.xyz --chrg -1 --uhf 0 --opt --gbsa Acetonitrile
          number of atoms            :                    12
          number of electrons        :                    42
          charge                     :                    -1

   ID    Z sym.   atoms
    1    6 C      1-6
    2    8 O      7
    3    9 F      8
    4    1 H      9-12

        Solvent                        Acetonitrile
        Solvent mass                       4.1050E+01 g/mol
          :  Hamiltonian                  GFN2-xTB          :
 * total energy  :   -23.9603234 Eh     change       -0.1048086E-09 Eh
 * total energy  :   -23.9703315 Eh     change       -0.1000809E-01 Eh
 * total energy  :   -23.9733187 Eh     change       -0.2987254E-02 Eh
 * total energy  :   -23.9737336 Eh     change       -0.4149346E-03 Eh
 * total energy  :   -23.9737581 Eh     change       -0.2441793E-04 Eh
 * total energy  :   -23.9737633 Eh     change       -0.5231434E-05 Eh
 * total energy  :   -23.9737637 Eh     change       -0.3673029E-06 Eh
   *** GEOMETRY OPTIMIZATION CONVERGED AFTER 7 ITERATIONS ***

 final structure:
================
12
 xtb: 6.4.1 (bd6e46d)
C         1.02166961453201    0.93745326120938   -0.00709148127573
C        -0.28620126764314    1.35971521474427   -0.00850892062822
C        -1.29940815253497    0.41907899887621   -0.00131936813770
C        -1.02655631612439   -0.93626015528238    0.00716737211116
C         0.28147795309755   -1.35778288402296    0.00856011688037
C         1.38221098402815   -0.44572816863839    0.00144688455248
O         2.59321486494076   -0.83617357982004    0.00266916669262
F        -2.62161659925864    0.84539676741852   -0.00280275569107
H         1.82412492340606    1.66551978184721   -0.01253444238653
H        -0.53338772516353    2.41324269514449   -0.01500265224015
H        -1.84262894124200   -1.64698831118304    0.01253041167930
H         0.50700066196214   -2.41747362029327    0.01508566844346

          :  Hamiltonian                  GFN2-xTB          :
         :: total energy             -23.973763657320 Eh    ::
         :: gradient norm              0.000203212483 Eh/a0 ::
         :: HOMO-LUMO gap              3.208029397323 eV    ::
         :: SCC energy               -24.270674343151 Eh    ::
         :: -> dispersion             -0.009791442246 Eh    ::
         :: -> Gsolv                  -0.087679361239 Eh    ::
         :: repulsion energy           0.296901251106 Eh    ::

    * Orbital Energies and Occupations

         #    Occupation            Energy/Eh            Energy/eV
      -------------------------------------------------------------
         1        2.0000           -0.7873289             -21.4243
       ...           ...                  ...                  ...
         9        2.0000           -0.4970288             -13.5248
        10        2.0000           -0.4921470             -13.3920
        11        2.0000           -0.4830100             -13.1434
        12        2.0000           -0.4570128             -12.4360
        13        2.0000           -0.4544386             -12.3659
        14        2.0000           -0.4515197             -12.2865
        15        2.0000           -0.4499903             -12.2449
        16        2.0000           -0.4146926             -11.2844
        17        2.0000           -0.4076548             -11.0929
        18        2.0000           -0.4046260             -11.0104
        19        2.0000           -0.3768115             -10.2536
        20        2.0000           -0.3199090              -8.7052
        21        2.0000           -0.3106804              -8.4540 (HOMO)
        22                         -0.1927875              -5.2460 (LUMO)
        23                         -0.1650041              -4.4900
        24                         -0.0523502              -1.4245
        25                          0.0408882               1.1126
        26                          0.1443936               3.9292
        27                          0.1796833               4.8894
        28                          0.1851809               5.0390
        29                          0.2287252               6.2239
        30                          0.2604996               7.0886
        31                          0.4150920              11.2952
        32                          0.4544133              12.3652
       ...                                ...                  ...
        36                          0.7103770              19.3303
      -------------------------------------------------------------
                  HL-Gap            0.1178929 Eh            3.2080 eV

     #   Z          covCN         q      C6AA      α(0)
     1   6 C        2.923    -0.096    30.418     9.045
     2   6 C        2.908    -0.064    29.592     8.920
     3   6 C        2.787     0.110    25.563     8.282
     4   6 C        2.908    -0.064    29.592     8.920
     5   6 C        2.923    -0.096    30.419     9.045
     6   6 C        2.829     0.171    24.325     8.082
     7   8 O        0.857    -0.665    27.779     7.066
     8   9 F        0.784    -0.309    12.426     4.164
     9   1 H        0.925    -0.007     3.181     2.789
    10   1 H        0.925     0.014     2.824     2.628
    11   1 H        0.925     0.014     2.824     2.628
    12   1 H        0.925    -0.007     3.181     2.789

Wiberg/Mayer (AO) data.
largest (>0.10) Wiberg bond orders for each atom

     #   Z sym  total        # sym  WBO       # sym  WBO       # sym  WBO
 ---------------------------------------------------------------------------
     1   6 C    3.978 --     2 C    1.498     6 C    1.225     9 H    0.972
                             7 O    0.104
     2   6 C    3.988 --     1 C    1.498     3 C    1.373    10 H    0.968
     3   6 C    3.834 --     2 C    1.373     4 C    1.373     8 F    0.883
     4   6 C    3.988 --     5 C    1.498     3 C    1.373    11 H    0.968
     5   6 C    3.978 --     4 C    1.498     6 C    1.225    12 H    0.972
                             7 O    0.104
     6   6 C    3.969 --     7 O    1.423     1 C    1.225     5 C    1.225
     7   8 O    1.730 --     6 C    1.423     1 C    0.104     5 C    0.104
     8   9 F    0.980 --     3 C    0.883
     9   1 H    1.000 --     1 C    0.972
    10   1 H    1.000 --     2 C    0.968
    11   1 H    1.000 --     4 C    0.968
    12   1 H    1.000 --     5 C    0.972
 ---------------------------------------------------------------------------

molecular dipole:
                 x           y           z       tot (Debye)
 q only:       -1.725       0.556      -0.002
   full:       -1.912       0.616      -0.002       5.105

           -------------------------------------------------
          | TOTAL ENERGY              -23.973763657320 Eh   |
          | GRADIENT NORM               0.000203212483 Eh/α |
          | HOMO-LUMO GAP               3.208029397323 eV   |
           -------------------------------------------------

 * finished run on 2022/03/02 at 03:03:26.870
