                         Program Version 5.0.1 -  RELEASE  -
|  1> ! Opt CPCM(Acetonitrile)
|  2> %cpcm
|  3> surfacetype vdw_gaussian
|  4> end
|  5> %geom MaxIter 100 end
|  6> %output
|  7> xyzfile=True
|  8> end
|  9> %scf
| 10> maxiter 250
| 11> end
| 12> %output
| 13> Print[P_Hirshfeld] = 1
| 14> end
| 15> % maxcore
| 16> 4000
| 17> %pal nprocs 96
| 18> end
| 19> *xyz 0 1
| 20> C    0.52637560  -1.10786374   0.05366293
| 21> C   -0.77920726  -1.14904784   0.50959812
| 22> C   -1.51928213   0.01690062   0.51559591
| 23> C   -0.99424906   1.22046339   0.08108487
| 24> C    0.30963062   1.25356339  -0.37203579
| 25> C    1.07958850   0.09095600  -0.38903773
| 26> O    2.35180331   0.17798056  -0.84304122
| 27> F   -2.80680545  -0.01969072   0.96370181
| 28> H    1.11539992  -2.01341386   0.04455611
| 29> H   -1.22061151  -2.06969213   0.85617013
| 30> H   -1.60189661   2.11080812   0.09962379
| 31> H    0.75139834   2.17365187  -0.71850634
| 32> H    2.78775572  -0.68451566  -0.80137259
| 33> *
| 34>
| 35>                          ****END OF INPUT****
 Total Charge           Charge          ....    0
 Multiplicity           Mult            ....    1
 Number of Electrons    NEL             ....   58
FINAL SINGLE POINT ENERGY      -404.113966205515
FINAL SINGLE POINT ENERGY      -404.115196516886
FINAL SINGLE POINT ENERGY      -404.115281041142
FINAL SINGLE POINT ENERGY      -404.115290894231
FINAL SINGLE POINT ENERGY      -404.115292710772
                    ***********************HURRAY********************

CARTESIAN COORDINATES (ANGSTROEM)
---------------------------------
  C      0.526401   -1.109896    0.053915
  C     -0.785888   -1.145956    0.510721
  C     -1.526957    0.016279    0.518312
  C     -0.995387    1.215147    0.082002
  C      0.313626    1.248264   -0.372680
  C      1.080914    0.085790   -0.388523
  O      2.346106    0.173054   -0.838994
  F     -2.785182   -0.015193    0.956335
  H      1.119457   -2.015863    0.044066
  H     -1.227720   -2.069967    0.858335
  H     -1.601832    2.110623    0.099768
  H      0.751803    2.174464   -0.718804
  H      2.784559   -0.666644   -0.804451

 Multiplicity           Mult            ....    1
 Number of Electrons    NEL             ....   58
 Basis Dimension        Dim             ....  137

ORBITAL ENERGIES
----------------

  NO   OCC          E(Eh)            E(eV)
   0   2.0000     -26.301960      -715.7127
   1   2.0000     -20.580845      -560.0333
   2   2.0000     -11.320394      -308.0436
   3   2.0000     -11.306987      -307.6787
   4   2.0000     -11.249190      -306.1060
   5   2.0000     -11.249003      -306.1009
   6   2.0000     -11.243740      -305.9577
   7   2.0000     -11.242114      -305.9135
   8   2.0000      -1.609941       -43.8087
   9   2.0000      -1.398258       -38.0485
  10   2.0000      -1.155011       -31.4295
  11   2.0000      -1.027183       -27.9511
  12   2.0000      -1.004784       -27.3416
  13   2.0000      -0.868321       -23.6282
  14   2.0000      -0.840227       -22.8637
  15   2.0000      -0.754006       -20.5175
  16   2.0000      -0.750078       -20.4107
  17   2.0000      -0.712609       -19.3911
  18   2.0000      -0.702568       -19.1179
  19   2.0000      -0.639853       -17.4113
  20   2.0000      -0.622724       -16.9452
  21   2.0000      -0.605203       -16.4684
  22   2.0000      -0.600512       -16.3408
  23   2.0000      -0.585402       -15.9296
  24   2.0000      -0.558134       -15.1876
  25   2.0000      -0.504515       -13.7286
  26   2.0000      -0.491056       -13.3623
  27   2.0000      -0.358730        -9.7615
  28   2.0000      -0.319117        -8.6836
  29   0.0000       0.115777         3.1505
  30   0.0000       0.154166         4.1951
  31   0.0000       0.197820         5.3830
  32   0.0000       0.210800         5.7361
  33   0.0000       0.233037         6.3413

MULLIKEN ATOMIC CHARGES
-----------------------
   0 C :   -0.105804
   1 C :   -0.096291
   2 C :    0.353202
   3 C :   -0.092554
   4 C :   -0.092411
   5 C :    0.240010
   6 O :   -0.370089
   7 F :   -0.349627
   8 H :    0.067489
   9 H :    0.076185
  10 H :    0.076106
  11 H :    0.064685
  12 H :    0.229100
Sum of atomic charges:   -0.0000000

LOEWDIN ATOMIC CHARGES
----------------------
   0 C :   -0.063848
   1 C :   -0.033988
   2 C :    0.082181
   3 C :   -0.033392
   4 C :   -0.050014
   5 C :    0.072350
   6 O :   -0.111062
   7 F :   -0.142792
   8 H :    0.041925
   9 H :    0.046669
  10 H :    0.046567
  11 H :    0.040597
  12 H :    0.104806

  Mayer bond orders larger than 0.100000
B(  0-C ,  1-C ) :   1.3707 B(  0-C ,  5-C ) :   1.3753 B(  0-C ,  8-H ) :   1.0041
B(  1-C ,  2-C ) :   1.4121 B(  1-C ,  9-H ) :   1.0023 B(  2-C ,  3-C ) :   1.3886
B(  2-C ,  7-F ) :   0.8791 B(  3-C ,  4-C ) :   1.3992 B(  3-C , 10-H ) :   1.0041
B(  4-C ,  5-C ) :   1.3734 B(  4-C , 11-H ) :   1.0081 B(  5-C ,  6-O ) :   1.0746
B(  6-O , 12-H ) :   0.9520

FINAL SINGLE POINT ENERGY      -404.115292824864

DIPOLE MOMENT
-------------
                                X             Y             Z
Electronic contribution:     -4.50761      -0.08416       1.56006
Nuclear contribution   :      5.34669      -0.61495      -1.69310
                        -----------------------------------------
Total Dipole Moment    :      0.83908      -0.69911      -0.13304
                        -----------------------------------------
Magnitude (a.u.)       :      1.10023
Magnitude (Debye)      :      2.79656

Rotational constants in cm-1:     0.190048     0.049087     0.039011
Rotational constants in MHz :  5697.508293  1471.578460  1169.512066

                             ****ORCA TERMINATED NORMALLY****
TOTAL RUN TIME: 0 days 0 hours 5 minutes 16 seconds 509 msec
