   * xtb version 6.4.1 (bd6e46d) compiled by 'conda@4901f00b25ba' on 2021-06-10
          program call               : /jet/home/maihfly/.conda/envs/Cyclodextrins-Env/bin/xtb p-fluorophenol_opt_xtb.xyz --chrg 0 --uhf 0 --opt --gbsa Acetonitrile
          number of atoms            :                    13
          number of electrons        :                    42
          charge                     :                     0

   ID    Z sym.   atoms
    1    6 C      1-6
    2    8 O      7
    3    9 F      8
    4    1 H      9-13

        Solvent                        Acetonitrile
        Solvent mass                       4.1050E+01 g/mol
          :  Hamiltonian                  GFN2-xTB          :
 * total energy  :   -24.1804153 Eh     change       -0.1748006E-09 Eh
 * total energy  :   -24.1862543 Eh     change       -0.5838969E-02 Eh
 * total energy  :   -24.1870720 Eh     change       -0.8176950E-03 Eh
 * total energy  :   -24.1871398 Eh     change       -0.6784605E-04 Eh
 * total energy  :   -24.1872319 Eh     change       -0.9205624E-04 Eh
 * total energy  :   -24.1873135 Eh     change       -0.8161394E-04 Eh
 * total energy  :   -24.1844274 Eh     change        0.2886067E-02 Eh
 * total energy  :   -24.1877990 Eh     change       -0.3371565E-02 Eh
 * total energy  :   -24.1880791 Eh     change       -0.2800488E-03 Eh
 * total energy  :   -24.1878560 Eh     change        0.2230551E-03 Eh
 * total energy  :   -24.1926958 Eh     change       -0.5629496E-03 Eh
 * total energy  :   -24.1942706 Eh     change       -0.1574847E-02 Eh
 * total energy  :   -24.1946110 Eh     change       -0.3403642E-03 Eh
 * total energy  :   -24.1952428 Eh     change       -0.6318877E-03 Eh
 * total energy  :   -24.1954919 Eh     change       -0.2491001E-03 Eh
 * total energy  :   -24.1957190 Eh     change       -0.2270709E-03 Eh
 * total energy  :   -24.1958378 Eh     change       -0.1188123E-03 Eh
 * total energy  :   -24.1958586 Eh     change       -0.2075453E-04 Eh
 * total energy  :   -24.1958612 Eh     change       -0.2583010E-05 Eh
   *** GEOMETRY OPTIMIZATION CONVERGED AFTER 24 ITERATIONS ***

 final structure:
================
13
 xtb: 6.4.1 (bd6e46d)
C         0.52637559750052   -1.10786373672316    0.05366292885132
C        -0.77920725519715   -1.14904784014634    0.50959811939337
C        -1.51928212802705    0.01690062108310    0.51559591251788
C        -0.99424905969595    1.22046338793406    0.08108486940036
C         0.30963061643031    1.25356338605883   -0.37203579401571
C         1.07958850413933    0.09095599668985   -0.38903772854508
O         2.35180331470899    0.17798056335680   -0.84304122275639
F        -2.80680545420683   -0.01969072162162    0.96370181302835
H         1.11539992301239   -2.01341386163752    0.04455610510815
H        -1.22061150729946   -2.06969212527065    0.85617013418252
H        -1.60189660928614    2.11080812129953    0.09962378527213
H         0.75139833856456    2.17365187228386   -0.71850633540527
H         2.78775571935649   -0.68451566330675   -0.80137258703164

          :  Hamiltonian                  GFN2-xTB          :
         :: total energy             -24.195861170340 Eh    ::
         :: gradient norm              0.000427013518 Eh/a0 ::
         :: HOMO-LUMO gap              4.103824721461 eV    ::
         :: SCC energy               -24.512013863366 Eh    ::
         :: -> dispersion             -0.009261389744 Eh    ::
         :: -> Gsolv                  -0.013933500032 Eh    ::
         :: repulsion energy           0.316141970703 Eh    ::

    * Orbital Energies and Occupations

         #    Occupation            Energy/Eh            Energy/eV
      -------------------------------------------------------------
         1        2.0000           -0.8160904             -22.2069
       ...           ...                  ...                  ...
         9        2.0000           -0.5538151             -15.0701
        10        2.0000           -0.5447956             -14.8246
        11        2.0000           -0.5349495             -14.5567
        12        2.0000           -0.5231322             -14.2352
        13        2.0000           -0.5115167             -13.9191
        14        2.0000           -0.5012116             -13.6387
        15        2.0000           -0.4914923             -13.3742
        16        2.0000           -0.4746896             -12.9170
        17        2.0000           -0.4700594             -12.7910
        18        2.0000           -0.4629234             -12.5968
        19        2.0000           -0.4329437             -11.7810
        20        2.0000           -0.4205379             -11.4434
        21        2.0000           -0.3900935             -10.6150 (HOMO)
        22                         -0.2392807              -6.5112 (LUMO)
        23                         -0.2240683              -6.0972
        24                         -0.1014462              -2.7605
        25                          0.0347614               0.9459
        26                          0.0730445               1.9876
        27                          0.1336833               3.6377
        28                          0.1441776               3.9233
        29                          0.1669366               4.5426
        30                          0.1931937               5.2571
        31                          0.2053870               5.5889
        32                          0.3712531              10.1023
       ...                                ...                  ...
        37                          0.6556754              17.8418
      -------------------------------------------------------------
                  HL-Gap            0.1508128 Eh            4.1038 eV

     #   Z          covCN         q      C6AA      α(0)
     1   6 C        2.923    -0.072    29.804     8.953
     2   6 C        2.916    -0.052    29.285     8.874
     3   6 C        2.787     0.153    24.667     8.135
     4   6 C        2.916    -0.052    29.281     8.873
     5   6 C        2.924    -0.056    29.400     8.892
     6   6 C        2.844     0.147    24.804     8.162
     7   8 O        1.660    -0.407    20.982     6.184
     8   9 F        0.786    -0.264    11.913     4.077
     9   1 H        0.926     0.060     2.197     2.318
    10   1 H        0.926     0.063     2.163     2.300
    11   1 H        0.926     0.063     2.161     2.299
    12   1 H        0.926     0.067     2.113     2.273
    13   1 H        0.805     0.348     0.592     1.208

Wiberg/Mayer (AO) data.
largest (>0.10) Wiberg bond orders for each atom

     #   Z sym  total        # sym  WBO       # sym  WBO       # sym  WBO
 ---------------------------------------------------------------------------
     1   6 C    3.986 --     2 C    1.445     6 C    1.369     9 H    0.965
                             4 C    0.105
     2   6 C    3.989 --     1 C    1.445     3 C    1.403    10 H    0.967
                             5 C    0.108
     3   6 C    3.870 --     2 C    1.403     4 C    1.392     8 F    0.926
     4   6 C    3.989 --     5 C    1.459     3 C    1.392    11 H    0.966
                             1 C    0.105
     5   6 C    3.987 --     4 C    1.459     6 C    1.357    12 H    0.967
                             2 C    0.108
     6   6 C    3.947 --     1 C    1.369     5 C    1.357     7 O    1.095
     7   8 O    2.119 --     6 C    1.095    13 H    0.858
     8   9 F    1.042 --     3 C    0.926
     9   1 H    0.996 --     1 C    0.965
    10   1 H    0.996 --     2 C    0.967
    11   1 H    0.996 --     4 C    0.966
    12   1 H    0.995 --     5 C    0.967
    13   1 H    0.879 --     7 O    0.858
 ---------------------------------------------------------------------------

molecular dipole:
                 x           y           z       tot (Debye)
 q only:        1.239      -0.482      -0.316
   full:        1.211      -0.659      -0.268       3.570

           -------------------------------------------------
          | TOTAL ENERGY              -24.195861170340 Eh   |
          | GRADIENT NORM               0.000427013518 Eh/α |
          | HOMO-LUMO GAP               4.103824721461 eV   |
           -------------------------------------------------

 * finished run on 2022/03/02 at 03:03:23.200
